# vtk DataFile Version 2.0
avpol
ASCII
DATASET STRUCTURED_GRID 
DIMENSIONS   51     6     6
POINTS     1836 float
   0.0000000000000000            0.0000000000000000            0.0000000000000000     
   0.0000000000000000            0.0000000000000000           0.50000000000000000     
   0.0000000000000000            0.0000000000000000            1.0000000000000000     
   0.0000000000000000            0.0000000000000000            1.5000000000000000     
   0.0000000000000000            0.0000000000000000            2.0000000000000000     
   0.0000000000000000            0.0000000000000000            2.5000000000000000     
   0.0000000000000000            0.0000000000000000            3.0000000000000000     
   0.0000000000000000            0.0000000000000000            3.5000000000000000     
   0.0000000000000000            0.0000000000000000            4.0000000000000000     
   0.0000000000000000            0.0000000000000000            4.5000000000000000     
   0.0000000000000000            0.0000000000000000            5.0000000000000000     
   0.0000000000000000            0.0000000000000000            5.5000000000000000     
   0.0000000000000000            0.0000000000000000            6.0000000000000000     
   0.0000000000000000            0.0000000000000000            6.5000000000000000     
   0.0000000000000000            0.0000000000000000            7.0000000000000000     
   0.0000000000000000            0.0000000000000000            7.5000000000000000     
   0.0000000000000000            0.0000000000000000            8.0000000000000000     
   0.0000000000000000            0.0000000000000000            8.5000000000000000     
   0.0000000000000000            0.0000000000000000            9.0000000000000000     
   0.0000000000000000            0.0000000000000000            9.5000000000000000     
   0.0000000000000000            0.0000000000000000            10.000000000000000     
   0.0000000000000000            0.0000000000000000            10.500000000000000     
   0.0000000000000000            0.0000000000000000            11.000000000000000     
   0.0000000000000000            0.0000000000000000            11.500000000000000     
   0.0000000000000000            0.0000000000000000            12.000000000000000     
   0.0000000000000000            0.0000000000000000            12.500000000000000     
   0.0000000000000000            0.0000000000000000            13.000000000000000     
   0.0000000000000000            0.0000000000000000            13.500000000000000     
   0.0000000000000000            0.0000000000000000            14.000000000000000     
   0.0000000000000000            0.0000000000000000            14.500000000000000     
   0.0000000000000000            0.0000000000000000            15.000000000000000     
   0.0000000000000000            0.0000000000000000            15.500000000000000     
   0.0000000000000000            0.0000000000000000            16.000000000000000     
   0.0000000000000000            0.0000000000000000            16.500000000000000     
   0.0000000000000000            0.0000000000000000            17.000000000000000     
   0.0000000000000000            0.0000000000000000            17.500000000000000     
   0.0000000000000000            0.0000000000000000            18.000000000000000     
   0.0000000000000000            0.0000000000000000            18.500000000000000     
   0.0000000000000000            0.0000000000000000            19.000000000000000     
   0.0000000000000000            0.0000000000000000            19.500000000000000     
   0.0000000000000000            0.0000000000000000            20.000000000000000     
   0.0000000000000000            0.0000000000000000            20.500000000000000     
   0.0000000000000000            0.0000000000000000            21.000000000000000     
   0.0000000000000000            0.0000000000000000            21.500000000000000     
   0.0000000000000000            0.0000000000000000            22.000000000000000     
   0.0000000000000000            0.0000000000000000            22.500000000000000     
   0.0000000000000000            0.0000000000000000            23.000000000000000     
   0.0000000000000000            0.0000000000000000            23.500000000000000     
   0.0000000000000000            0.0000000000000000            24.000000000000000     
   0.0000000000000000            0.0000000000000000            24.500000000000000     
   0.0000000000000000            0.0000000000000000            25.000000000000000     
   0.0000000000000000           0.50000000000000000            0.0000000000000000     
   0.0000000000000000           0.50000000000000000           0.50000000000000000     
   0.0000000000000000           0.50000000000000000            1.0000000000000000     
   0.0000000000000000           0.50000000000000000            1.5000000000000000     
   0.0000000000000000           0.50000000000000000            2.0000000000000000     
   0.0000000000000000           0.50000000000000000            2.5000000000000000     
   0.0000000000000000           0.50000000000000000            3.0000000000000000     
   0.0000000000000000           0.50000000000000000            3.5000000000000000     
   0.0000000000000000           0.50000000000000000            4.0000000000000000     
   0.0000000000000000           0.50000000000000000            4.5000000000000000     
   0.0000000000000000           0.50000000000000000            5.0000000000000000     
   0.0000000000000000           0.50000000000000000            5.5000000000000000     
   0.0000000000000000           0.50000000000000000            6.0000000000000000     
   0.0000000000000000           0.50000000000000000            6.5000000000000000     
   0.0000000000000000           0.50000000000000000            7.0000000000000000     
   0.0000000000000000           0.50000000000000000            7.5000000000000000     
   0.0000000000000000           0.50000000000000000            8.0000000000000000     
   0.0000000000000000           0.50000000000000000            8.5000000000000000     
   0.0000000000000000           0.50000000000000000            9.0000000000000000     
   0.0000000000000000           0.50000000000000000            9.5000000000000000     
   0.0000000000000000           0.50000000000000000            10.000000000000000     
   0.0000000000000000           0.50000000000000000            10.500000000000000     
   0.0000000000000000           0.50000000000000000            11.000000000000000     
   0.0000000000000000           0.50000000000000000            11.500000000000000     
   0.0000000000000000           0.50000000000000000            12.000000000000000     
   0.0000000000000000           0.50000000000000000            12.500000000000000     
   0.0000000000000000           0.50000000000000000            13.000000000000000     
   0.0000000000000000           0.50000000000000000            13.500000000000000     
   0.0000000000000000           0.50000000000000000            14.000000000000000     
   0.0000000000000000           0.50000000000000000            14.500000000000000     
   0.0000000000000000           0.50000000000000000            15.000000000000000     
   0.0000000000000000           0.50000000000000000            15.500000000000000     
   0.0000000000000000           0.50000000000000000            16.000000000000000     
   0.0000000000000000           0.50000000000000000            16.500000000000000     
   0.0000000000000000           0.50000000000000000            17.000000000000000     
   0.0000000000000000           0.50000000000000000            17.500000000000000     
   0.0000000000000000           0.50000000000000000            18.000000000000000     
   0.0000000000000000           0.50000000000000000            18.500000000000000     
   0.0000000000000000           0.50000000000000000            19.000000000000000     
   0.0000000000000000           0.50000000000000000            19.500000000000000     
   0.0000000000000000           0.50000000000000000            20.000000000000000     
   0.0000000000000000           0.50000000000000000            20.500000000000000     
   0.0000000000000000           0.50000000000000000            21.000000000000000     
   0.0000000000000000           0.50000000000000000            21.500000000000000     
   0.0000000000000000           0.50000000000000000            22.000000000000000     
   0.0000000000000000           0.50000000000000000            22.500000000000000     
   0.0000000000000000           0.50000000000000000            23.000000000000000     
   0.0000000000000000           0.50000000000000000            23.500000000000000     
   0.0000000000000000           0.50000000000000000            24.000000000000000     
   0.0000000000000000           0.50000000000000000            24.500000000000000     
   0.0000000000000000           0.50000000000000000            25.000000000000000     
   0.0000000000000000            1.0000000000000000            0.0000000000000000     
   0.0000000000000000            1.0000000000000000           0.50000000000000000     
   0.0000000000000000            1.0000000000000000            1.0000000000000000     
   0.0000000000000000            1.0000000000000000            1.5000000000000000     
   0.0000000000000000            1.0000000000000000            2.0000000000000000     
   0.0000000000000000            1.0000000000000000            2.5000000000000000     
   0.0000000000000000            1.0000000000000000            3.0000000000000000     
   0.0000000000000000            1.0000000000000000            3.5000000000000000     
   0.0000000000000000            1.0000000000000000            4.0000000000000000     
   0.0000000000000000            1.0000000000000000            4.5000000000000000     
   0.0000000000000000            1.0000000000000000            5.0000000000000000     
[...]
CELL_DATA     1250
SCALARS avpol float 1
LOOKUP_TABLE default
   7.81982690E-02
  0.126595661    
  0.137275845    
  0.151804984    
  0.139829189    
  0.167369336    
  0.171084151    
  0.148095280    
  0.132839307    
  0.112572305    
  0.103307389    
   5.75264283E-02
   4.15241346E-02
   5.21067269E-02
   6.62972499E-03
   0.00000000    
   0.00000000    
   0.00000000    
   0.00000000    
   0.00000000    
   0.00000000    
   0.00000000    
   0.00000000    
   0.00000000    
   0.00000000    
   0.00000000    
   0.00000000    
   0.00000000    
   0.00000000    
   0.00000000    
   0.00000000    
   0.00000000    
   0.00000000    
   0.00000000    
   0.00000000    
   0.00000000    
   0.00000000    
   0.00000000    
   0.00000000    
   0.00000000    
   0.00000000    
   0.00000000    
   0.00000000    
   0.00000000    
   0.00000000    
   0.00000000    
   0.00000000    
   0.00000000    
   0.00000000    
   0.00000000    
  0.107944869    
  0.124921024    
  0.139509022    
  0.154048204    
  0.163431615    
  0.188491642    
  0.175553560    
  0.138761804    
  0.119675986    
  0.131271467    
  0.122866258    
   5.50657585E-02
   4.70494255E-02
   5.87646402E-02
   5.79222478E-03
   0.00000000    
   0.00000000    
   0.00000000    
   0.00000000    
   0.00000000    
   0.00000000    
   0.00000000    
   0.00000000    
   0.00000000    
   0.00000000    
   0.00000000    
   0.00000000    
   0.00000000    
   0.00000000    
   0.00000000    
   0.00000000    
   0.00000000    
   0.00000000    
   0.00000000    
   0.00000000    
   0.00000000    
   0.00000000    
   0.00000000    
   0.00000000    
   0.00000000    
   0.00000000    
   0.00000000    
   0.00000000    
   0.00000000    
   0.00000000    
   0.00000000    
   0.00000000    
   0.00000000    
   0.00000000    
   0.00000000    
  0.141998261    
  0.141367197    
  0.141210362    
  0.157954320    
  0.173615947    
  0.159461960    
  0.143527284    
  0.133488059    
  0.112165689    
  0.153896540    
  0.123311043    
   4.13072146E-02
   4.46149483E-02
   4.60033864E-02
   1.54988496E-02
   0.00000000    
   0.00000000    
   0.00000000    
   0.00000000    
   0.00000000    
   0.00000000    
   0.00000000    
   0.00000000    
   0.00000000    
   0.00000000    
   0.00000000    
   0.00000000    
   0.00000000    
   0.00000000    
   0.00000000    
   0.00000000    
   0.00000000    
   0.00000000    
   0.00000000    
   0.00000000    
   0.00000000    
   0.00000000    
   0.00000000    
   0.00000000    
   0.00000000    
   0.00000000    
   0.00000000    
   0.00000000    
   0.00000000    
   0.00000000    
   0.00000000    
   0.00000000    
   0.00000000    
   0.00000000    
   0.00000000    
  0.127567843    
  0.145631716    
  0.141297102    
  0.161559626    
  0.157120824    
  0.164818108    
  0.160508201    
  0.140183061    
  0.115384527    
  0.132790118    
  0.118783906    
   3.63305919E-02
   5.44074699E-02
   4.48755994E-02
   2.39432100E-02
   0.00000000    
   0.00000000    
   0.00000000    
   0.00000000    
   0.00000000    
   0.00000000    
   0.00000000    
   0.00000000    
   0.00000000    
   0.00000000    
   0.00000000    
   0.00000000    
   0.00000000    
   0.00000000    
   0.00000000    
   0.00000000    
   0.00000000    
   0.00000000    
   0.00000000    
   0.00000000    
   0.00000000    
   0.00000000    
   0.00000000    
   0.00000000    
   0.00000000    
   0.00000000    
   0.00000000    
   0.00000000    
   0.00000000    
   0.00000000    
   0.00000000    
   0.00000000    
   0.00000000    
   0.00000000    
   0.00000000    
   7.81337842E-02
  0.126466125    
  0.137273446    
  0.151863649    
  0.139821962    
  0.167265654    
  0.171121791    
  0.148083806    
  0.132846802    
  0.112570286    
  0.103306577    
   5.75343966E-02
   4.15141433E-02
   5.21030053E-02
   6.63212873E-03
   0.00000000    
   0.00000000    
   0.00000000    
   0.00000000    
   0.00000000    
   0.00000000    
   0.00000000    
   0.00000000    
   0.00000000    
   0.00000000    
   0.00000000    
   0.00000000    
   0.00000000    
   0.00000000    
   0.00000000    
   0.00000000    
   0.00000000    
   0.00000000    
   0.00000000    
   0.00000000    
   0.00000000    
   0.00000000    
   0.00000000    
   0.00000000    
   0.00000000    
   0.00000000    
   0.00000000    
   0.00000000    
   0.00000000    
   0.00000000    
   0.00000000    
   0.00000000    
   0.00000000    
   0.00000000    
   0.00000000    
  0.127536669    
  0.145592049    
  0.141232342    
  0.161594436    
  0.157086238    
  0.164772868    
  0.160458624    
  0.140173852    
  0.115374096    
  0.132797062    
  0.118786141    
   3.63374166E-02
   5.44049293E-02
   4.48735729E-02
   2.39436459E-02
   0.00000000    
   0.00000000    
   0.00000000    
   0.00000000    
   0.00000000    
   0.00000000    
   0.00000000    
   0.00000000    
   0.00000000    
   0.00000000    
   0.00000000    
   0.00000000    
   0.00000000    
   0.00000000    
   0.00000000    
   0.00000000    
   0.00000000    
   0.00000000    
   0.00000000    
   0.00000000    
   0.00000000    
   0.00000000    
   0.00000000    
   0.00000000    
   0.00000000    
   0.00000000    
   0.00000000    
   0.00000000    
   0.00000000    
   0.00000000    
   0.00000000    
   0.00000000    
   0.00000000    
   0.00000000    
   0.00000000    
  0.183916554    
  0.170995414    
  0.163611770    
  0.155169904    
  0.171490088    
  0.121214397    
  0.126574859    
  0.136308819    
  0.131478295    
  0.110921614    
  0.144765556    
   5.21756858E-02
   3.80672961E-02
   2.52271928E-02
   0.00000000    
   0.00000000    
   0.00000000    
   0.00000000    
   0.00000000    
   0.00000000    
   0.00000000    
   0.00000000    
   0.00000000    
   0.00000000    
   0.00000000    
   0.00000000    
   0.00000000    
   0.00000000    
   0.00000000    
   0.00000000    
   0.00000000    
   0.00000000    
   0.00000000    
   0.00000000    
   0.00000000    
   0.00000000    
   0.00000000    
   0.00000000    
   0.00000000    
   0.00000000    
   0.00000000    
   0.00000000    
   0.00000000    
   0.00000000    
   0.00000000    
   0.00000000    
   0.00000000    
   0.00000000    
   0.00000000    
   0.00000000    
  0.310818911    
  0.215639696    
  0.169900700    
  0.160987154    
  0.150974557    
  0.152390406    
  0.148757115    
  0.119760819    
  0.124943934    
  0.124955766    
  0.115732118    
   6.72716424E-02
   4.14028652E-02
   2.63422877E-02
   4.88713989E-03
   0.00000000    
   0.00000000    
   0.00000000    
   0.00000000    
   0.00000000    
   0.00000000    
   0.00000000    
   0.00000000    
   0.00000000    
   0.00000000    
   0.00000000    
   0.00000000    
   0.00000000    
   0.00000000    
   0.00000000    
   0.00000000    
   0.00000000    
   0.00000000    
   0.00000000    
   0.00000000    
   0.00000000    
   0.00000000    
   0.00000000    
   0.00000000    
   0.00000000    
   0.00000000    
   0.00000000    
   0.00000000    
   0.00000000    
   0.00000000    
   0.00000000    
   0.00000000    
   0.00000000    
   0.00000000    
   0.00000000    
  0.183931366    
  0.171004727    
  0.163615212    
  0.155217305    
  0.171543539    
  0.121165223    
  0.126580670    
  0.136312753    
  0.131481379    
  0.110921897    
  0.144756645    
   5.21691628E-02
   3.80747281E-02
   2.52245534E-02
   0.00000000    
   0.00000000    
   0.00000000    
   0.00000000    
   0.00000000    
   0.00000000    
   0.00000000    
   0.00000000    
   0.00000000    
   0.00000000    
   0.00000000    
   0.00000000    
   0.00000000    
   0.00000000    
   0.00000000    
   0.00000000    
   0.00000000    
   0.00000000    
   0.00000000    
   0.00000000    
   0.00000000    
   0.00000000    
   0.00000000    
   0.00000000    
   0.00000000    
   0.00000000    
   0.00000000    
   0.00000000    
   0.00000000    
   0.00000000    
   0.00000000    
   0.00000000    
   0.00000000    
   0.00000000    
   0.00000000    
   0.00000000    
  0.107871778    
  0.124941304    
  0.139505461    
  0.154117078    
  0.163383186    
  0.188480362    
  0.175550073    
  0.138748392    
  0.119668186    
  0.131254762    
  0.122840546    
   5.50612845E-02
   4.70328592E-02
   5.87578937E-02
   5.79041988E-03
   0.00000000    
   0.00000000    
   0.00000000    
   0.00000000    
   0.00000000    
   0.00000000    
   0.00000000    
   0.00000000    
   0.00000000    
   0.00000000    
   0.00000000    
   0.00000000    
   0.00000000    
   0.00000000    
   0.00000000    
   0.00000000    
   0.00000000    
   0.00000000    
   0.00000000    
   0.00000000    
   0.00000000    
   0.00000000    
   0.00000000    
   0.00000000    
   0.00000000    
   0.00000000    
   0.00000000    
   0.00000000    
   0.00000000    
   0.00000000    
   0.00000000    
   0.00000000    
   0.00000000    
   0.00000000    
   0.00000000    
  0.141993836    
  0.141330555    
  0.141116709    
  0.157888830    
  0.173627302    
  0.159417033    
  0.143550470    
  0.133486584    
  0.112170167    
  0.153894067    
  0.123299636    
   4.13139015E-02
   4.46147583E-02
   4.60000075E-02
   1.54934973E-02
   0.00000000    
   0.00000000    
   0.00000000    
   0.00000000    
   0.00000000    
   0.00000000    
   0.00000000    
   0.00000000    
   0.00000000    
   0.00000000    
   0.00000000    
   0.00000000    
   0.00000000    
   0.00000000    
   0.00000000    
   0.00000000    
   0.00000000    
   0.00000000    
   0.00000000    
   0.00000000    
   0.00000000    
   0.00000000    
   0.00000000    
   0.00000000    
   0.00000000    
   0.00000000    
   0.00000000    
   0.00000000    
   0.00000000    
   0.00000000    
   0.00000000    
   0.00000000    
   0.00000000    
   0.00000000    
   0.00000000    
  0.310853541    
  0.215628847    
  0.169910550    
  0.160998449    
  0.151073143    
  0.152453706    
  0.148767650    
  0.119765110    
  0.124958605    
  0.124954022    
  0.115723468    
   6.72686175E-02
   4.14160527E-02
   2.63543893E-02
   4.88677435E-03
   0.00000000    
   0.00000000    
   0.00000000    
   0.00000000    
   0.00000000    
   0.00000000    
   0.00000000    
   0.00000000    
   0.00000000    
   0.00000000    
   0.00000000    
   0.00000000    
   0.00000000    
   0.00000000    
   0.00000000    
   0.00000000    
   0.00000000    
   0.00000000    
   0.00000000    
   0.00000000    
   0.00000000    
   0.00000000    
   0.00000000    
   0.00000000    
   0.00000000    
   0.00000000    
   0.00000000    
   0.00000000    
   0.00000000    
   0.00000000    
   0.00000000    
   0.00000000    
   0.00000000    
   0.00000000    
   0.00000000    
  0.303641617    
  0.269539475    
  0.201369151    
  0.236370683    
  0.121454693    
  0.182439744    
  0.160311729    
  0.106878772    
  0.116677828    
  0.145511955    
  0.113584802    
   3.05154547E-02
   5.76355979E-02
   3.08502242E-02
   0.00000000    
   0.00000000    
   0.00000000    
   0.00000000    
   0.00000000    
   0.00000000    
   0.00000000    
   0.00000000    
   0.00000000    
   0.00000000    
   0.00000000    
   0.00000000    
   0.00000000    
   0.00000000    
   0.00000000    
   0.00000000    
   0.00000000    
   0.00000000    
   0.00000000    
   0.00000000    
   0.00000000    
   0.00000000    
   0.00000000    
   0.00000000    
   0.00000000    
   0.00000000    
   0.00000000    
   0.00000000    
   0.00000000    
   0.00000000    
   0.00000000    
   0.00000000    
   0.00000000    
   0.00000000    
   0.00000000    
   0.00000000    
  0.310811251    
  0.215650365    
  0.169921473    
  0.161021397    
  0.150905445    
  0.152351618    
  0.148756310    
  0.119756818    
  0.124945767    
  0.124953166    
  0.115723267    
   6.72571808E-02
   4.14138921E-02
   2.63536777E-02
   4.88783559E-03
   0.00000000    
   0.00000000    
   0.00000000    
   0.00000000    
   0.00000000    
   0.00000000    
   0.00000000    
   0.00000000    
   0.00000000    
   0.00000000    
   0.00000000    
   0.00000000    
   0.00000000    
   0.00000000    
   0.00000000    
   0.00000000    
   0.00000000    
   0.00000000    
   0.00000000    
   0.00000000    
   0.00000000    
   0.00000000    
   0.00000000    
   0.00000000    
   0.00000000    
   0.00000000    
   0.00000000    
   0.00000000    
   0.00000000    
   0.00000000    
   0.00000000    
   0.00000000    
   0.00000000    
   0.00000000    
   0.00000000    
  0.142027378    
  0.141324222    
  0.141114831    
  0.157915100    
  0.173633814    
  0.159420326    
  0.143538788    
  0.133491069    
  0.112155706    
  0.153860047    
  0.123282999    
   4.13086787E-02
   4.46056239E-02
   4.59954813E-02
   1.55084776E-02
   0.00000000    
   0.00000000    
   0.00000000    
   0.00000000    
   0.00000000    
   0.00000000    
   0.00000000    
   0.00000000    
   0.00000000    
   0.00000000    
   0.00000000    
   0.00000000    
   0.00000000    
   0.00000000    
   0.00000000    
   0.00000000    
   0.00000000    
   0.00000000    
   0.00000000    
   0.00000000    
   0.00000000    
   0.00000000    
   0.00000000    
   0.00000000    
   0.00000000    
   0.00000000    
   0.00000000    
   0.00000000    
   0.00000000    
   0.00000000    
   0.00000000    
   0.00000000    
   0.00000000    
   0.00000000    
   0.00000000    
  0.107818156    
  0.124933109    
  0.139516324    
  0.154094487    
  0.163387716    
  0.188488081    
  0.175547257    
  0.138755441    
  0.119678870    
  0.131264731    
  0.122854166    
   5.50612547E-02
   4.70502786E-02
   5.87646440E-02
   5.79280732E-03
   0.00000000    
   0.00000000    
   0.00000000    
   0.00000000    
   0.00000000    
   0.00000000    
   0.00000000    
   0.00000000    
   0.00000000    
   0.00000000    
   0.00000000    
   0.00000000    
   0.00000000    
   0.00000000    
   0.00000000    
   0.00000000    
   0.00000000    
   0.00000000    
   0.00000000    
   0.00000000    
   0.00000000    
   0.00000000    
   0.00000000    
   0.00000000    
   0.00000000    
   0.00000000    
   0.00000000    
   0.00000000    
   0.00000000    
   0.00000000    
   0.00000000    
   0.00000000    
   0.00000000    
   0.00000000    
   0.00000000    
  0.184051380    
  0.170964062    
  0.163597107    
  0.155192629    
  0.171539351    
  0.121108554    
  0.126594275    
  0.136292323    
  0.131472930    
  0.110921778    
  0.144764841    
   5.21674752E-02
   3.80736962E-02
   2.52334531E-02
   0.00000000    
   0.00000000    
   0.00000000    
   0.00000000    
   0.00000000    
   0.00000000    
   0.00000000    
   0.00000000    
   0.00000000    
   0.00000000    
   0.00000000    
   0.00000000    
   0.00000000    
   0.00000000    
   0.00000000    
   0.00000000    
   0.00000000    
   0.00000000    
   0.00000000    
   0.00000000    
   0.00000000    
   0.00000000    
   0.00000000    
   0.00000000    
   0.00000000    
   0.00000000    
   0.00000000    
   0.00000000    
   0.00000000    
   0.00000000    
   0.00000000    
   0.00000000    
   0.00000000    
   0.00000000    
   0.00000000    
   0.00000000    
  0.310828865    
  0.215631634    
  0.169902533    
  0.161011636    
  0.150946572    
  0.152358964    
  0.148758560    
  0.119758725    
  0.124942541    
  0.124950476    
  0.115730077    
   6.72646239E-02
   4.14231941E-02
   2.63505001E-02
   4.88680229E-03
   0.00000000    
   0.00000000    
   0.00000000    
   0.00000000    
   0.00000000    
   0.00000000    
   0.00000000    
   0.00000000    
   0.00000000    
   0.00000000    
   0.00000000    
   0.00000000    
   0.00000000    
   0.00000000    
   0.00000000    
   0.00000000    
   0.00000000    
   0.00000000    
   0.00000000    
   0.00000000    
   0.00000000    
   0.00000000    
   0.00000000    
   0.00000000    
   0.00000000    
   0.00000000    
   0.00000000    
   0.00000000    
   0.00000000    
   0.00000000    
   0.00000000    
   0.00000000    
   0.00000000    
   0.00000000    
   0.00000000    
  0.183974728    
  0.170978740    
  0.163599789    
  0.155164048    
  0.171514079    
  0.121137142    
  0.126598880    
  0.136304766    
  0.131474867    
  0.110921316    
  0.144771218    
   5.21658175E-02
   3.80659252E-02
   2.52289716E-02
   0.00000000    
   0.00000000    
   0.00000000    
   0.00000000    
   0.00000000    
   0.00000000    
   0.00000000    
   0.00000000    
   0.00000000    
   0.00000000    
   0.00000000    
   0.00000000    
   0.00000000    
   0.00000000    
   0.00000000    
   0.00000000    
   0.00000000    
   0.00000000    
   0.00000000    
   0.00000000    
   0.00000000    
   0.00000000    
   0.00000000    
   0.00000000    
   0.00000000    
   0.00000000    
   0.00000000    
   0.00000000    
   0.00000000    
   0.00000000    
   0.00000000    
   0.00000000    
   0.00000000    
   0.00000000    
   0.00000000    
   0.00000000    
  0.127568752    
  0.145652682    
  0.141238257    
  0.161598474    
  0.157105640    
  0.164847717    
  0.160472021    
  0.140188962    
  0.115376130    
  0.132779688    
  0.118771106    
   3.63274738E-02
   5.43860309E-02
   4.48774323E-02
   2.39482466E-02
   0.00000000    
   0.00000000    
   0.00000000    
   0.00000000    
   0.00000000    
   0.00000000    
   0.00000000    
   0.00000000    
   0.00000000    
   0.00000000    
   0.00000000    
   0.00000000    
   0.00000000    
   0.00000000    
   0.00000000    
   0.00000000    
   0.00000000    
   0.00000000    
   0.00000000    
   0.00000000    
   0.00000000    
   0.00000000    
   0.00000000    
   0.00000000    
   0.00000000    
   0.00000000    
   0.00000000    
   0.00000000    
   0.00000000    
   0.00000000    
   0.00000000    
   0.00000000    
   0.00000000    
   0.00000000    
   0.00000000    
   7.81137794E-02
  0.126468614    
  0.137336925    
  0.151807740    
  0.139928848    
  0.167269751    
  0.171068549    
  0.148103252    
  0.132843122    
  0.112560593    
  0.103306644    
   5.75356632E-02
   4.15263548E-02
   5.21075875E-02
   6.63158437E-03
   0.00000000    
   0.00000000    
   0.00000000    
   0.00000000    
   0.00000000    
   0.00000000    
   0.00000000    
   0.00000000    
   0.00000000    
   0.00000000    
   0.00000000    
   0.00000000    
   0.00000000    
   0.00000000    
   0.00000000    
   0.00000000    
   0.00000000    
   0.00000000    
   0.00000000    
   0.00000000    
   0.00000000    
   0.00000000    
   0.00000000    
   0.00000000    
   0.00000000    
   0.00000000    
   0.00000000    
   0.00000000    
   0.00000000    
   0.00000000    
   0.00000000    
   0.00000000    
   0.00000000    
   0.00000000    
   0.00000000    
  0.127690956    
  0.145607620    
  0.141244501    
  0.161687136    
  0.157072604    
  0.164785936    
  0.160460383    
  0.140170097    
  0.115374364    
  0.132768884    
  0.118772618    
   3.63328643E-02
   5.44120260E-02
   4.48865034E-02
   2.39429157E-02
   0.00000000    
   0.00000000    
   0.00000000    
   0.00000000    
   0.00000000    
   0.00000000    
   0.00000000    
   0.00000000    
   0.00000000    
   0.00000000    
   0.00000000    
   0.00000000    
   0.00000000    
   0.00000000    
   0.00000000    
   0.00000000    
   0.00000000    
   0.00000000    
   0.00000000    
   0.00000000    
   0.00000000    
   0.00000000    
   0.00000000    
   0.00000000    
   0.00000000    
   0.00000000    
   0.00000000    
   0.00000000    
   0.00000000    
   0.00000000    
   0.00000000    
   0.00000000    
   0.00000000    
   0.00000000    
   0.00000000    
  0.142014459    
  0.141330510    
  0.141102597    
  0.157896683    
  0.173630059    
  0.159482464    
  0.143539831    