# vtk DataFile Version 2.0
poten
ASCII
DATASET STRUCTURED_GRID 
DIMENSIONS   51     6     6
POINTS     1836 float
   0.0000000000000000            0.0000000000000000            0.0000000000000000     
   0.0000000000000000            0.0000000000000000           0.50000000000000000     
   0.0000000000000000            0.0000000000000000            1.0000000000000000     
   0.0000000000000000            0.0000000000000000            1.5000000000000000     
   0.0000000000000000            0.0000000000000000            2.0000000000000000     
   0.0000000000000000            0.0000000000000000            2.5000000000000000     
   0.0000000000000000            0.0000000000000000            3.0000000000000000     
   0.0000000000000000            0.0000000000000000            3.5000000000000000     
   0.0000000000000000            0.0000000000000000            4.0000000000000000     
   0.0000000000000000            0.0000000000000000            4.5000000000000000     
   0.0000000000000000            0.0000000000000000            5.0000000000000000     
   0.0000000000000000            0.0000000000000000            5.5000000000000000     
   0.0000000000000000            0.0000000000000000            6.0000000000000000     
   0.0000000000000000            0.0000000000000000            6.5000000000000000     
   0.0000000000000000            0.0000000000000000            7.0000000000000000     
   0.0000000000000000            0.0000000000000000            7.5000000000000000     
   0.0000000000000000            0.0000000000000000            8.0000000000000000     
   0.0000000000000000            0.0000000000000000            8.5000000000000000     
   0.0000000000000000            0.0000000000000000            9.0000000000000000     
   0.0000000000000000            0.0000000000000000            9.5000000000000000     
   0.0000000000000000            0.0000000000000000            10.000000000000000     
   0.0000000000000000            0.0000000000000000            10.500000000000000     
   0.0000000000000000            0.0000000000000000            11.000000000000000     
   0.0000000000000000            0.0000000000000000            11.500000000000000     
   0.0000000000000000            0.0000000000000000            12.000000000000000     
   0.0000000000000000            0.0000000000000000            12.500000000000000     
   0.0000000000000000            0.0000000000000000            13.000000000000000     
   0.0000000000000000            0.0000000000000000            13.500000000000000     
   0.0000000000000000            0.0000000000000000            14.000000000000000     
   0.0000000000000000            0.0000000000000000            14.500000000000000     
   0.0000000000000000            0.0000000000000000            15.000000000000000     
   0.0000000000000000            0.0000000000000000            15.500000000000000     
   0.0000000000000000            0.0000000000000000            16.000000000000000     
   0.0000000000000000            0.0000000000000000            16.500000000000000     
   0.0000000000000000            0.0000000000000000            17.000000000000000     
   0.0000000000000000            0.0000000000000000            17.500000000000000     
   0.0000000000000000            0.0000000000000000            18.000000000000000     
   0.0000000000000000            0.0000000000000000            18.500000000000000     
   0.0000000000000000            0.0000000000000000            19.000000000000000     
   0.0000000000000000            0.0000000000000000            19.500000000000000     
   0.0000000000000000            0.0000000000000000            20.000000000000000     
   0.0000000000000000            0.0000000000000000            20.500000000000000     
   0.0000000000000000            0.0000000000000000            21.000000000000000     
   0.0000000000000000            0.0000000000000000            21.500000000000000     
   0.0000000000000000            0.0000000000000000            22.000000000000000     
   0.0000000000000000            0.0000000000000000            22.500000000000000     
   0.0000000000000000            0.0000000000000000            23.000000000000000     
   0.0000000000000000            0.0000000000000000            23.500000000000000     
   0.0000000000000000            0.0000000000000000            24.000000000000000     
   0.0000000000000000            0.0000000000000000            24.500000000000000     
   0.0000000000000000            0.0000000000000000            25.000000000000000     
   0.0000000000000000           0.50000000000000000            0.0000000000000000     
   0.0000000000000000           0.50000000000000000           0.50000000000000000     
   0.0000000000000000           0.50000000000000000            1.0000000000000000     
   0.0000000000000000           0.50000000000000000            1.5000000000000000     
   0.0000000000000000           0.50000000000000000            2.0000000000000000     
   0.0000000000000000           0.50000000000000000            2.5000000000000000     
   0.0000000000000000           0.50000000000000000            3.0000000000000000     
   0.0000000000000000           0.50000000000000000            3.5000000000000000     
   0.0000000000000000           0.50000000000000000            4.0000000000000000     
   0.0000000000000000           0.50000000000000000            4.5000000000000000     
   0.0000000000000000           0.50000000000000000            5.0000000000000000     
   0.0000000000000000           0.50000000000000000            5.5000000000000000     
   0.0000000000000000           0.50000000000000000            6.0000000000000000     
   0.0000000000000000           0.50000000000000000            6.5000000000000000     
   0.0000000000000000           0.50000000000000000            7.0000000000000000     
   0.0000000000000000           0.50000000000000000            7.5000000000000000     
   0.0000000000000000           0.50000000000000000            8.0000000000000000     
   0.0000000000000000           0.50000000000000000            8.5000000000000000     
   0.0000000000000000           0.50000000000000000            9.0000000000000000     
   0.0000000000000000           0.50000000000000000            9.5000000000000000     
   0.0000000000000000           0.50000000000000000            10.000000000000000     
   0.0000000000000000           0.50000000000000000            10.500000000000000     
   0.0000000000000000           0.50000000000000000            11.000000000000000     
   0.0000000000000000           0.50000000000000000            11.500000000000000     
   0.0000000000000000           0.50000000000000000            12.000000000000000     
   0.0000000000000000           0.50000000000000000            12.500000000000000     
   0.0000000000000000           0.50000000000000000            13.000000000000000     
   0.0000000000000000           0.50000000000000000            13.500000000000000     
   0.0000000000000000           0.50000000000000000            14.000000000000000     
   0.0000000000000000           0.50000000000000000            14.500000000000000     
   0.0000000000000000           0.50000000000000000            15.000000000000000     
   0.0000000000000000           0.50000000000000000            15.500000000000000     
   0.0000000000000000           0.50000000000000000            16.000000000000000     
   0.0000000000000000           0.50000000000000000            16.500000000000000     
   0.0000000000000000           0.50000000000000000            17.000000000000000     
   0.0000000000000000           0.50000000000000000            17.500000000000000     
   0.0000000000000000           0.50000000000000000            18.000000000000000     
   0.0000000000000000           0.50000000000000000            18.500000000000000     
   0.0000000000000000           0.50000000000000000            19.000000000000000     
   0.0000000000000000           0.50000000000000000            19.500000000000000     
   0.0000000000000000           0.50000000000000000            20.000000000000000     
   0.0000000000000000           0.50000000000000000            20.500000000000000     
   0.0000000000000000           0.50000000000000000            21.000000000000000     
   0.0000000000000000           0.50000000000000000            21.500000000000000     
   0.0000000000000000           0.50000000000000000            22.000000000000000     
   0.0000000000000000           0.50000000000000000            22.500000000000000     
   0.0000000000000000           0.50000000000000000            23.000000000000000     
   0.0000000000000000           0.50000000000000000            23.500000000000000     
   0.0000000000000000           0.50000000000000000            24.000000000000000     
   0.0000000000000000           0.50000000000000000            24.500000000000000     
   0.0000000000000000           0.50000000000000000            25.000000000000000     
   0.0000000000000000            1.0000000000000000            0.0000000000000000     
   0.0000000000000000            1.0000000000000000           0.50000000000000000     
   0.0000000000000000            1.0000000000000000            1.0000000000000000     
   0.0000000000000000            1.0000000000000000            1.5000000000000000     
   0.0000000000000000            1.0000000000000000            2.0000000000000000     
   0.0000000000000000            1.0000000000000000            2.5000000000000000     
   0.0000000000000000            1.0000000000000000            3.0000000000000000     
   0.0000000000000000            1.0000000000000000            3.5000000000000000     
   0.0000000000000000            1.0000000000000000            4.0000000000000000     
   0.0000000000000000            1.0000000000000000            4.5000000000000000     
   0.0000000000000000            1.0000000000000000            5.0000000000000000     
[...]
CELL_DATA     1250
SCALARS poten float 1
LOOKUP_TABLE default
  -1.47700977    
  -1.53370106    
  -1.56417668    
  -1.59147251    
  -1.59410572    
  -1.61481941    
  -1.59894419    
  -1.53963792    
  -1.47464073    
  -1.40131378    
  -1.28692329    
  -1.07462871    
 -0.903998315    
 -0.749472022    
 -0.480660588    
 -0.285355210    
 -0.169617534    
 -0.101055779    
  -6.03087097E-02
  -3.60275581E-02
  -2.15343032E-02
  -1.28752291E-02
  -7.69920181E-03
  -4.60437639E-03
  -2.75368197E-03
  -1.64689170E-03
  -9.84963379E-04
  -5.89088595E-04
  -3.52325413E-04
  -2.10719474E-04
  -1.26024301E-04
  -7.53633212E-05
  -4.50629850E-05
  -2.69488046E-05
  -1.61227181E-05
  -9.64838091E-06
  -5.77286937E-06
  -3.45259127E-06
  -2.06389154E-06
  -1.23244877E-06
  -7.34518665E-07
  -4.36660827E-07
  -2.58381959E-07
  -1.51903265E-07
  -8.97293475E-08
  -5.48512418E-08
  -3.53283589E-08
  -2.32859101E-08
  -1.45400625E-08
  -7.09532255E-09
  -1.54811156    
  -1.56631827    
  -1.58200037    
  -1.60277271    
  -1.61421180    
  -1.62077391    
  -1.59028518    
  -1.52579892    
  -1.46491170    
  -1.41929281    
  -1.30928862    
  -1.07458580    
 -0.905191958    
 -0.745361030    
 -0.475710988    
 -0.283327311    
 -0.168862537    
 -0.100793213    
  -6.02216125E-02
  -3.59995924E-02
  -2.15255227E-02
  -1.28725152E-02
  -7.69837108E-03
  -4.60412446E-03
  -2.75360676E-03
  -1.64686900E-03
  -9.84957442E-04
  -5.89087489E-04
  -3.52324569E-04
  -2.10718150E-04
  -1.26024112E-04
  -7.53636778E-05
  -4.50627049E-05
  -2.69490738E-05
  -1.61227563E-05
  -9.64815627E-06
  -5.77291394E-06
  -3.45273975E-06
  -2.06391019E-06
  -1.23238715E-06
  -7.34509626E-07
  -4.36633258E-07
  -2.58385313E-07
  -1.51921228E-07
  -8.97338239E-08
  -5.48562795E-08
  -3.53189975E-08
  -2.32829258E-08
  -1.45445664E-08
  -7.09421499E-09
  -1.60775280    
  -1.59962332    
  -1.59490347    
  -1.61126304    
  -1.62075794    
  -1.60407448    
  -1.56683075    
  -1.51435339    
  -1.45884264    
  -1.43723190    
  -1.31180906    
  -1.06341732    
 -0.899211645    
 -0.730815709    
 -0.484630466    
 -0.284110725    
 -0.168738127    
 -0.100688182    
  -6.01773597E-02
  -3.59839164E-02
  -2.15203688E-02
  -1.28708845E-02
  -7.69786630E-03
  -4.60397126E-03
  -2.75356020E-03
  -1.64685410E-03
  -9.84953018E-04
  -5.89086849E-04
  -3.52324074E-04
  -2.10718194E-04
  -1.26023748E-04
  -7.53632703E-05
  -4.50634107E-05
  -2.69488355E-05
  -1.61225707E-05
  -9.64826086E-06
  -5.77291257E-06
  -3.45277226E-06
  -2.06396794E-06
  -1.23238442E-06
  -7.34423963E-07
  -4.36648520E-07
  -2.58397961E-07
  -1.51924155E-07
  -8.97437218E-08
  -5.48438202E-08
  -3.53236551E-08
  -2.32839454E-08
  -1.45392498E-08
  -7.09833836E-09
  -1.56192815    
  -1.57930410    
  -1.58502626    
  -1.60644817    
  -1.60973084    
  -1.60699797    
  -1.58071184    
  -1.52504933    
  -1.46240830    
  -1.41930497    
  -1.30499101    
  -1.06056798    
 -0.908050954    
 -0.735641360    
 -0.494259447    
 -0.285924643    
 -0.169226602    
 -0.100844257    
  -6.02287687E-02
  -3.60005982E-02
  -2.15256643E-02
  -1.28725348E-02
  -7.69837433E-03
  -4.60412493E-03
  -2.75360630E-03
  -1.64686842E-03
  -9.84957675E-04
  -5.89087082E-04
  -3.52324976E-04
  -2.10718848E-04
  -1.26023428E-04
  -7.53634376E-05
  -4.50632142E-05
  -2.69489956E-05
  -1.61225362E-05
  -9.64825631E-06
  -5.77296851E-06
  -3.45270178E-06
  -2.06390655E-06
  -1.23239067E-06
  -7.34506955E-07
  -4.36637293E-07
  -2.58386166E-07
  -1.51918627E-07
  -8.97339731E-08
  -5.48571499E-08
  -3.53187382E-08
  -2.32825510E-08
  -1.45445576E-08
  -7.09433623E-09
  -1.47694778    
  -1.53362286    
  -1.56417024    
  -1.59150434    
  -1.59409475    
  -1.61476088    
  -1.59895921    
  -1.53963363    
  -1.47464252    
  -1.40130842    
  -1.28691661    
  -1.07462537    
 -0.903981686    
 -0.749461710    
 -0.480660290    
 -0.285354972    
 -0.169617474    
 -0.101055771    
  -6.03087097E-02
  -3.60275581E-02
  -2.15343032E-02
  -1.28752291E-02
  -7.69920181E-03
  -4.60437639E-03
  -2.75368197E-03
  -1.64689170E-03
  -9.84963379E-04
  -5.89088595E-04
  -3.52325413E-04
  -2.10719460E-04
  -1.26024301E-04
  -7.53633212E-05
  -4.50629850E-05
  -2.69488064E-05
  -1.61227144E-05
  -9.64838091E-06
  -5.77287074E-06
  -3.45259036E-06
  -2.06389154E-06
  -1.23244877E-06
  -7.34518721E-07
  -4.36661026E-07
  -2.58381760E-07
  -1.51903251E-07
  -8.97295180E-08
  -5.48512027E-08
  -3.53281493E-08
  -2.32857840E-08
  -1.45399870E-08
  -7.09531811E-09
  -1.56190538    
  -1.57927132    
  -1.58496773    
  -1.60644090    
  -1.60970056    
  -1.60696650    
  -1.58066928    
  -1.52503407    
  -1.46239793    
  -1.41930735    
  -1.30499220    
  -1.06057465    
 -0.908047199    
 -0.735636830    
 -0.494257003    
 -0.285923809    
 -0.169226348    
 -0.100844190    
  -6.02287501E-02
  -3.60005908E-02
  -2.15256624E-02
  -1.28725348E-02
  -7.69837387E-03
  -4.60412493E-03
  -2.75360607E-03
  -1.64686842E-03
  -9.84957675E-04
  -5.89087082E-04
  -3.52324976E-04
  -2.10718848E-04
  -1.26023428E-04
  -7.53634376E-05
  -4.50632142E-05
  -2.69489974E-05
  -1.61225344E-05
  -9.64825540E-06
  -5.77297033E-06
  -3.45270087E-06
  -2.06390655E-06
  -1.23239056E-06
  -7.34506841E-07
  -4.36637634E-07
  -2.58386052E-07
  -1.51918627E-07
  -8.97341010E-08
  -5.48570931E-08
  -3.53187950E-08
  -2.32827180E-08
  -1.45445771E-08
  -7.09421677E-09
  -1.67174780    
  -1.64454401    
  -1.62219644    
  -1.61492312    
  -1.61402392    
  -1.57574749    
  -1.55079210    
  -1.51288009    
  -1.46747482    
  -1.40921581    
  -1.32427132    
  -1.07567406    
 -0.887750149    
 -0.695454240    
 -0.453210354    
 -0.277537555    
 -0.167295247    
 -0.100356109    
  -6.00973070E-02
  -3.59637514E-02
  -2.15150863E-02
  -1.28694549E-02
  -7.69746909E-03
  -4.60385904E-03
  -2.75352737E-03
  -1.64684525E-03
  -9.84950573E-04
  -5.89085044E-04
  -3.52323172E-04
  -2.10719183E-04
  -1.26024199E-04
  -7.53626082E-05
  -4.50633161E-05
  -2.69488137E-05
  -1.61227345E-05
  -9.64828541E-06
  -5.77281889E-06
  -3.45281205E-06
  -2.06401774E-06
  -1.23237294E-06
  -7.34373259E-07
  -4.36662020E-07
  -2.58404526E-07
  -1.51924795E-07
  -8.97499675E-08
  -5.48362777E-08
  -3.53267708E-08
  -2.32846880E-08
  -1.45359298E-08
  -7.10082837E-09
  -1.77958608    
  -1.70273399    
  -1.64556420    
  -1.62775576    
  -1.60660386    
  -1.58779263    
  -1.55651283    
  -1.49936080    
  -1.46223867    
  -1.41712236    
  -1.31032705    
  -1.08245587    
 -0.888133943    
 -0.688472748    
 -0.451442122    
 -0.275691360    
 -0.166591361    
 -0.100128680    
  -6.00276366E-02
  -3.59428301E-02
  -2.15088520E-02
  -1.28676007E-02
  -7.69691821E-03
  -4.60369373E-03
  -2.75347871E-03
  -1.64683070E-03
  -9.84946615E-04
  -5.89083240E-04
  -3.52324423E-04
  -2.10718907E-04
  -1.26023093E-04
  -7.53629574E-05
  -4.50627995E-05
  -2.69496068E-05
  -1.61223907E-05
  -9.64799074E-06
  -5.77321771E-06
  -3.45285594E-06
  -2.06385994E-06
  -1.23232292E-06
  -7.34510195E-07
  -4.36587783E-07
  -2.58391282E-07
  -1.51946409E-07
  -8.97395438E-08
  -5.48662769E-08
  -3.53044136E-08
  -2.32773800E-08
  -1.45517145E-08
  -7.09259140E-09
  -1.67174196    
  -1.64455354    
  -1.62221277    
  -1.61496055    
  -1.61403799    
  -1.57570732    
  -1.55079234    
  -1.51288176    
  -1.46747398    
  -1.40920877    
  -1.32425582    
  -1.07565904    
 -0.887747645    
 -0.695447028    
 -0.453208983    
 -0.277537405    
 -0.167295247    
 -0.100356124    
  -6.00973107E-02
  -3.59637514E-02
  -2.15150882E-02
  -1.28694559E-02
  -7.69746909E-03
  -4.60385904E-03
  -2.75352737E-03
  -1.64684525E-03
  -9.84950573E-04
  -5.89085044E-04
  -3.52323172E-04
  -2.10719183E-04
  -1.26024199E-04
  -7.53626082E-05
  -4.50633161E-05
  -2.69488155E-05
  -1.61227345E-05
  -9.64828450E-06
  -5.77282026E-06
  -3.45281114E-06
  -2.06401796E-06
  -1.23237328E-06
  -7.34372975E-07
  -4.36662134E-07
  -2.58404441E-07
  -1.51924723E-07
  -8.97500030E-08
  -5.48361356E-08
  -3.53266607E-08
  -2.32845938E-08
  -1.45358809E-08
  -7.10081549E-09
  -1.54801691    
  -1.56629395    
  -1.58198500    
  -1.60280192    
  -1.61417902    
  -1.62074113    
  -1.59027815    
  -1.52578735    
  -1.46490014    
  -1.41927135    
  -1.30925715    
  -1.07456648    
 -0.905159831    
 -0.745338917    
 -0.475704879    
 -0.283326060    
 -0.168862253    
 -0.100793138    
  -6.02215938E-02
  -3.59995849E-02
  -2.15255227E-02
  -1.28725143E-02
  -7.69837108E-03
  -4.60412446E-03
  -2.75360676E-03
  -1.64686900E-03
  -9.84957325E-04
  -5.89087489E-04
  -3.52324569E-04
  -2.10718150E-04
  -1.26024126E-04
  -7.53636778E-05
  -4.50627085E-05
  -2.69490702E-05
  -1.61227563E-05
  -9.64815717E-06
  -5.77291121E-06
  -3.45274066E-06
  -2.06391042E-06
  -1.23238692E-06
  -7.34509854E-07
  -4.36633030E-07
  -2.58385427E-07
  -1.51921412E-07
  -8.97336960E-08
  -5.48561907E-08
  -3.53190153E-08
  -2.32828459E-08
  -1.45445718E-08
  -7.09422210E-09
  -1.60771871    
  -1.59957206    
  -1.59482098    
  -1.61121333    
  -1.62075269    
  -1.60403824    
  -1.56683147    
  -1.51434970    
  -1.45884097    
  -1.43722260    
  -1.31179214    
  -1.06341410    
 -0.899204612    
 -0.730807304    
 -0.484623104    
 -0.284109592    
 -0.168737933    
 -0.100688152    
  -6.01773560E-02
  -3.59839126E-02
  -2.15203688E-02
  -1.28708836E-02
  -7.69786630E-03
  -4.60397126E-03
  -2.75355997E-03
  -1.64685410E-03
  -9.84953018E-04
  -5.89086849E-04
  -3.52324074E-04
  -2.10718179E-04
  -1.26023762E-04
  -7.53632703E-05
  -4.50634107E-05
  -2.69488337E-05
  -1.61225707E-05
  -9.64826177E-06
  -5.77291121E-06
  -3.45277272E-06
  -2.06396749E-06
  -1.23238453E-06
  -7.34424418E-07
  -4.36648520E-07
  -2.58398131E-07
  -1.51924283E-07
  -8.97437644E-08
  -5.48436780E-08
  -3.53236089E-08
  -2.32840023E-08
  -1.45392391E-08
  -7.09835746E-09
  -1.77961552    
  -1.70272136    
  -1.64555418    
  -1.62776148    
  -1.60666811    
  -1.58783162    
  -1.55652487    
  -1.49936366    
  -1.46224678    
  -1.41711974    
  -1.31031907    
  -1.08245528    
 -0.888150692    
 -0.688491344    
 -0.451444566    
 -0.275691867    
 -0.166591495    
 -0.100128725    
  -6.00276478E-02
  -3.59428339E-02
  -2.15088539E-02
  -1.28676007E-02
  -7.69691868E-03
  -4.60369373E-03
  -2.75347871E-03
  -1.64683058E-03
  -9.84946615E-04
  -5.89083240E-04
  -3.52324423E-04
  -2.10718921E-04
  -1.26023093E-04
  -7.53629647E-05
  -4.50627995E-05
  -2.69496049E-05
  -1.61223907E-05
  -9.64799074E-06
  -5.77321816E-06
  -3.45285548E-06
  -2.06385994E-06
  -1.23232292E-06
  -7.34510138E-07
  -4.36587868E-07
  -2.58391083E-07
  -1.51946395E-07
  -8.97395296E-08
  -5.48661951E-08
  -3.53043745E-08
  -2.32775594E-08
  -1.45517465E-08
  -7.09264025E-09
  -1.83775425    
  -1.76696253    
  -1.68679047    
  -1.67400062    
  -1.59548795    
  -1.60365736    
  -1.56317103    
  -1.48700297    
  -1.45634580    
  -1.42675650    
  -1.30362320    
  -1.05996788    
 -0.896682799    
 -0.684807479    
 -0.440040529    
 -0.272326022    
 -0.165600672    
  -9.98416319E-02
  -5.99451512E-02
  -3.59191447E-02
  -2.15020198E-02
  -1.28656207E-02
  -7.69634079E-03
  -4.60352516E-03
  -2.75342911E-03
  -1.64681557E-03
  -9.84941027E-04
  -5.89083997E-04
  -3.52323463E-04
  -2.10718557E-04
  -1.26023369E-04
  -7.53620916E-05
  -4.50635271E-05
  -2.69489537E-05
  -1.61229273E-05
  -9.64811625E-06
  -5.77268884E-06
  -3.45302442E-06
  -2.06411369E-06
  -1.23228597E-06
  -7.34289983E-07
  -4.36678107E-07
  -2.58412570E-07
  -1.51933705E-07
  -8.97648249E-08
  -5.48277086E-08
  -3.53250833E-08
  -2.32838993E-08
  -1.45334393E-08
  -7.10426917E-09
  -1.77958345    
  -1.70273221    
  -1.64556432    
  -1.62776315    
  -1.60655355    
  -1.58774579    
  -1.55650461    
  -1.49935520    
  -1.46223378    
  -1.41711044    
  -1.31030941    
  -1.08243620    
 -0.888138354    
 -0.688484669    
 -0.451447129    
 -0.275692701    
 -0.166591704    
 -0.100128777    
  -6.00276627E-02
  -3.59428376E-02
  -2.15088539E-02
  -1.28676016E-02
  -7.69691868E-03
  -4.60369373E-03
  -2.75347871E-03
  -1.64683070E-03
  -9.84946615E-04
  -5.89083240E-04
  -3.52324423E-04
  -2.10718907E-04
  -1.26023093E-04
  -7.53629647E-05
  -4.50627995E-05
  -2.69496049E-05
  -1.61223907E-05
  -9.64799165E-06
  -5.77321680E-06
  -3.45285662E-06
  -2.06385994E-06
  -1.23232269E-06
  -7.34510422E-07
  -4.36587783E-07
  -2.58391111E-07
  -1.51946381E-07
  -8.97393591E-08
  -5.48661916E-08
  -3.53042431E-08
  -2.32773356E-08
  -1.45517944E-08
  -7.09269976E-09
  -1.60774112    
  -1.59957755    
  -1.59482408    
  -1.61122894    
  -1.62074292    
  -1.60402894    
  -1.56682289    
  -1.51434863    
  -1.45882571    
  -1.43719375    
  -1.31177068    
  -1.06339860    
 -0.899185956    
 -0.730799675    
 -0.484639287    
 -0.284112096    
 -0.168738350    
 -0.100688227    
  -6.01773672E-02
  -3.59839164E-02
  -2.15203688E-02
  -1.28708845E-02
  -7.69786630E-03
  -4.60397126E-03
  -2.75356020E-03
  -1.64685410E-03
  -9.84953018E-04
  -5.89086849E-04
  -3.52324074E-04
  -2.10718194E-04
  -1.26023748E-04
  -7.53632776E-05
  -4.50634107E-05
  -2.69488355E-05
  -1.61225707E-05
  -9.64825995E-06
  -5.77291439E-06
  -3.45277135E-06
  -2.06396749E-06
  -1.23238499E-06
  -7.34423850E-07
  -4.36648804E-07
  -2.58398103E-07
  -1.51924027E-07
  -8.97437857E-08
  -5.48435750E-08
  -3.53235627E-08
  -2.32840733E-08
  -1.45392880E-08
  -7.09837256E-09
  -1.54799545    
  -1.56628859    
  -1.58199096    
  -1.60278714    
  -1.61419404    
  -1.62074804    
  -1.59027481    
  -1.52579224    
  -1.46490908    
  -1.41928077    
  -1.30927026    
  -1.07457340    
 -0.905185342    
 -0.745358288    
 -0.475711942    
 -0.283327758    
 -0.168862730    
 -0.100793280    
  -6.02216348E-02
  -3.59995998E-02
  -2.15255264E-02
  -1.28725152E-02
  -7.69837108E-03
  -4.60412493E-03
  -2.75360676E-03
  -1.64686900E-03
  -9.84957325E-04
  -5.89087489E-04
  -3.52324569E-04
  -2.10718164E-04
  -1.26024112E-04
  -7.53636778E-05
  -4.50627085E-05
  -2.69490720E-05
  -1.61227563E-05
  -9.64815627E-06
  -5.77291348E-06
  -3.45273952E-06
  -2.06391042E-06
  -1.23238726E-06
  -7.34509513E-07
  -4.36633371E-07
  -2.58385398E-07
  -1.51921355E-07
  -8.97338523E-08
  -5.48562120E-08
  -3.53189513E-08
  -2.32829027E-08
  -1.45445007E-08
  -7.09426384E-09
  -1.67184389    
  -1.64453745    
  -1.62219155    
  -1.61495030    
  -1.61404312    
  -1.57567751    
  -1.55078948    
  -1.51286590    
  -1.46746635    
  -1.40920734    
  -1.32426369    
  -1.07566607    
 -0.887763977    
 -0.695471048    
 -0.453215569    
 -0.277539194    
 -0.167295739    
 -0.100356266    
  -6.00973517E-02
  -3.59637663E-02
  -2.15150919E-02
  -1.28694568E-02
  -7.69746955E-03
  -4.60385904E-03
  -2.75352737E-03
  -1.64684525E-03
  -9.84950573E-04
  -5.89085044E-04
  -3.52323172E-04
  -2.10719169E-04
  -1.26024199E-04
  -7.53626082E-05
  -4.50633161E-05
  -2.69488155E-05
  -1.61227345E-05
  -9.64828450E-06
  -5.77281935E-06
  -3.45281160E-06
  -2.06401751E-06
  -1.23237305E-06
  -7.34373145E-07
  -4.36661963E-07
  -2.58404555E-07
  -1.51924667E-07
  -8.97499817E-08
  -5.48362102E-08
  -3.53266003E-08
  -2.32847288E-08
  -1.45359085E-08
  -7.10092740E-09
  -1.77961278    
  -1.70272386    
  -1.64555001    
  -1.62775874    
  -1.60658133    
  -1.58775711    
  -1.55650866    
  -1.49935448    
  -1.46223283    
  -1.41711330    
  -1.31032181    
  -1.08245277    
 -0.888159573    
 -0.688492715    
 -0.451447546    
 -0.275693059    
 -0.166591868    
 -0.100128837    
  -6.00276813E-02
  -3.59428450E-02
  -2.15088557E-02
  -1.28676016E-02
  -7.69691868E-03
  -4.60369419E-03
  -2.75347871E-03
  -1.64683070E-03
  -9.84946615E-04
  -5.89083240E-04
  -3.52324423E-04
  -2.10718921E-04
  -1.26023093E-04
  -7.53629647E-05
  -4.50627995E-05
  -2.69496049E-05
  -1.61223925E-05
  -9.64799165E-06
  -5.77321725E-06
  -3.45285594E-06
  -2.06386017E-06
  -1.23232257E-06
  -7.34510252E-07
  -4.36587811E-07
  -2.58391083E-07
  -1.51946395E-07
  -8.97394017E-08
  -5.48662200E-08
  -3.53043497E-08
  -2.32773676E-08
  -1.45517935E-08
  -7.09265313E-09
  -1.67177308    
  -1.64453745    
  -1.62218738    
  -1.61492038    
  -1.61401021    
  -1.57568455    
  -1.55079830    
  -1.51287675    
  -1.46746707    
  -1.40920568    
  -1.32426369    
  -1.07565498    
 -0.887743652    
 -0.695457637    
 -0.453214318    
 -0.277539194    
 -0.167295784    
 -0.100356281    
  -6.00973554E-02
  -3.59637663E-02
  -2.15150919E-02
  -1.28694568E-02
  -7.69746955E-03
  -4.60385904E-03
  -2.75352737E-03
  -1.64684525E-03
  -9.84950573E-04
  -5.89085044E-04
  -3.52323172E-04
  -2.10719183E-04
  -1.26024199E-04
  -7.53626082E-05
  -4.50633161E-05
  -2.69488155E-05
  -1.61227345E-05
  -9.64828359E-06
  -5.77282071E-06
  -3.45281137E-06
  -2.06401751E-06
  -1.23237339E-06
  -7.34372748E-07
  -4.36662134E-07
  -2.58404583E-07
  -1.51924610E-07
  -8.97499746E-08
  -5.48362209E-08
  -3.53265115E-08
  -2.32845299E-08
  -1.45358339E-08
  -7.10089809E-09
  -1.56192946    
  -1.57929957    
  -1.58497488    
  -1.60644829    
  -1.60971832    
  -1.60698962    
  -1.58067679    
  -1.52504313    
  -1.46239388    
  -1.41928542    
  -1.30497086    
  -1.06055248    
 -0.908024013    
 -0.735639274    
 -0.494267195    
 -0.285926491    
 -0.169227064    
 -0.100844383    
  -6.02288023E-02
  -3.60006057E-02
  -2.15256680E-02
  -1.28725357E-02
  -7.69837433E-03
  -4.60412540E-03
  -2.75360630E-03
  -1.64686842E-03
  -9.84957675E-04
  -5.89087082E-04
  -3.52324976E-04
  -2.10718848E-04
  -1.26023428E-04
  -7.53634376E-05
  -4.50632142E-05
  -2.69489938E-05
  -1.61225362E-05
  -9.64825722E-06
  -5.77296805E-06
  -3.45270200E-06
  -2.06390655E-06
  -1.23238988E-06
  -7.34507182E-07
  -4.36637350E-07
  -2.58386024E-07
  -1.51918613E-07
  -8.97339731E-08
  -5.48571890E-08
  -3.53187133E-08
  -2.32825652E-08
  -1.45446188E-08
  -7.09427672E-09
  -1.47695076    
  -1.53362834    
  -1.56420398    
  -1.59149134    
  -1.59415686    
  -1.61476374    
  -1.59892237    
  -1.53963768    
  -1.47463882    
  -1.40130007    
  -1.28691721    
  -1.07463217    
 -0.904003322    
 -0.749476910    
 -0.480664223    
 -0.285356164    
 -0.169617817    
 -0.101055868    
  -6.03087358E-02
  -3.60275656E-02
  -2.15343069E-02
  -1.28752301E-02
  -7.69920228E-03
  -4.60437639E-03
  -2.75368197E-03
  -1.64689170E-03
  -9.84963379E-04
  -5.89088595E-04
  -3.52325442E-04
  -2.10719460E-04
  -1.26024301E-04
  -7.53633212E-05
  -4.50629850E-05
  -2.69488064E-05
  -1.61227163E-05
  -9.64838091E-06
  -5.77287028E-06
  -3.45259082E-06
  -2.06389132E-06
  -1.23244877E-06
  -7.34518835E-07
  -4.36661026E-07
  -2.58381903E-07
  -1.51903222E-07
  -8.97295038E-08
  -5.48512631E-08
  -3.53282701E-08
  -2.32859989E-08
  -1.45400456E-08
  -7.09531145E-09
  -1.56204975    
  -1.57930028    
  -1.58499575    
  -1.60650694    
  -1.60971749    
  -1.60696852    
  -1.58066785    
  -1.52503037    
  -1.46239436    
  -1.41928589    
  -1.30498290    
  -1.06057692    
 -0.908069372    
 -0.735664964    
 -0.494265079    
 -0.285926193    
 -0.169227019    
 -0.100844368    
  -6.02288023E-02
  -3.60006057E-02
  -2.15256680E-02
  -1.28725357E-02
  -7.69837433E-03
  -4.60412493E-03
  -2.75360630E-03
  -1.64686842E-03
  -9.84957675E-04
  -5.89087082E-04
  -3.52324976E-04
  -2.10718848E-04
  -1.26023413E-04
  -7.53634376E-05
  -4.50632142E-05
  -2.69489938E-05
  -1.61225380E-05
  -9.64825631E-06
  -5.77296805E-06
  -3.45270132E-06
  -2.06390655E-06
  -1.23239022E-06
  -7.34506955E-07
  -4.36637492E-07
  -2.58385995E-07
  -1.51918627E-07
  -8.97339447E-08
  -5.48571677E-08
  -3.53188767E-08
  -2.32827606E-08
  -1.45445824E-08
  -7.09434378E-09
  -1.60776627    
  -1.59959245    
  -1.59483349    
  -1.61123419    
  -1.62075603    
  -1.60407615    
  -1.56683385    