# vtk DataFile Version 2.0
avpo1
ASCII
DATASET STRUCTURED_GRID 
DIMENSIONS   41    11    11
POINTS     4961 float
   0.0000000000000000            0.0000000000000000            0.0000000000000000     
   0.0000000000000000            0.0000000000000000           0.50000000000000000     
   0.0000000000000000            0.0000000000000000            1.0000000000000000     
   0.0000000000000000            0.0000000000000000            1.5000000000000000     
   0.0000000000000000            0.0000000000000000            2.0000000000000000     
   0.0000000000000000            0.0000000000000000            2.5000000000000000     
   0.0000000000000000            0.0000000000000000            3.0000000000000000     
   0.0000000000000000            0.0000000000000000            3.5000000000000000     
   0.0000000000000000            0.0000000000000000            4.0000000000000000     
   0.0000000000000000            0.0000000000000000            4.5000000000000000     
   0.0000000000000000            0.0000000000000000            5.0000000000000000     
   0.0000000000000000            0.0000000000000000            5.5000000000000000     
   0.0000000000000000            0.0000000000000000            6.0000000000000000     
   0.0000000000000000            0.0000000000000000            6.5000000000000000     
   0.0000000000000000            0.0000000000000000            7.0000000000000000     
   0.0000000000000000            0.0000000000000000            7.5000000000000000     
   0.0000000000000000            0.0000000000000000            8.0000000000000000     
   0.0000000000000000            0.0000000000000000            8.5000000000000000     
   0.0000000000000000            0.0000000000000000            9.0000000000000000     
   0.0000000000000000            0.0000000000000000            9.5000000000000000     
   0.0000000000000000            0.0000000000000000            10.000000000000000     
   0.0000000000000000            0.0000000000000000            10.500000000000000     
   0.0000000000000000            0.0000000000000000            11.000000000000000     
   0.0000000000000000            0.0000000000000000            11.500000000000000     
   0.0000000000000000            0.0000000000000000            12.000000000000000     
   0.0000000000000000            0.0000000000000000            12.500000000000000     
   0.0000000000000000            0.0000000000000000            13.000000000000000     
   0.0000000000000000            0.0000000000000000            13.500000000000000     
   0.0000000000000000            0.0000000000000000            14.000000000000000     
   0.0000000000000000            0.0000000000000000            14.500000000000000     
   0.0000000000000000            0.0000000000000000            15.000000000000000     
   0.0000000000000000            0.0000000000000000            15.500000000000000     
   0.0000000000000000            0.0000000000000000            16.000000000000000     
   0.0000000000000000            0.0000000000000000            16.500000000000000     
   0.0000000000000000            0.0000000000000000            17.000000000000000     
   0.0000000000000000            0.0000000000000000            17.500000000000000     
   0.0000000000000000            0.0000000000000000            18.000000000000000     
   0.0000000000000000            0.0000000000000000            18.500000000000000     
   0.0000000000000000            0.0000000000000000            19.000000000000000     
   0.0000000000000000            0.0000000000000000            19.500000000000000     
   0.0000000000000000            0.0000000000000000            20.000000000000000     
   0.0000000000000000           0.50000000000000000            0.0000000000000000     
   0.0000000000000000           0.50000000000000000           0.50000000000000000     
   0.0000000000000000           0.50000000000000000            1.0000000000000000     
   0.0000000000000000           0.50000000000000000            1.5000000000000000     
   0.0000000000000000           0.50000000000000000            2.0000000000000000     
   0.0000000000000000           0.50000000000000000            2.5000000000000000     
   0.0000000000000000           0.50000000000000000            3.0000000000000000     
   0.0000000000000000           0.50000000000000000            3.5000000000000000     
   0.0000000000000000           0.50000000000000000            4.0000000000000000     
   0.0000000000000000           0.50000000000000000            4.5000000000000000     
   0.0000000000000000           0.50000000000000000            5.0000000000000000     
   0.0000000000000000           0.50000000000000000            5.5000000000000000     
   0.0000000000000000           0.50000000000000000            6.0000000000000000     
   0.0000000000000000           0.50000000000000000            6.5000000000000000     
   0.0000000000000000           0.50000000000000000            7.0000000000000000     
   0.0000000000000000           0.50000000000000000            7.5000000000000000     
   0.0000000000000000           0.50000000000000000            8.0000000000000000     
   0.0000000000000000           0.50000000000000000            8.5000000000000000     
   0.0000000000000000           0.50000000000000000            9.0000000000000000     
   0.0000000000000000           0.50000000000000000            9.5000000000000000     
   0.0000000000000000           0.50000000000000000            10.000000000000000     
   0.0000000000000000           0.50000000000000000            10.500000000000000     
   0.0000000000000000           0.50000000000000000            11.000000000000000     
   0.0000000000000000           0.50000000000000000            11.500000000000000     
   0.0000000000000000           0.50000000000000000            12.000000000000000     
   0.0000000000000000           0.50000000000000000            12.500000000000000     
   0.0000000000000000           0.50000000000000000            13.000000000000000     
   0.0000000000000000           0.50000000000000000            13.500000000000000     
   0.0000000000000000           0.50000000000000000            14.000000000000000     
   0.0000000000000000           0.50000000000000000            14.500000000000000     
   0.0000000000000000           0.50000000000000000            15.000000000000000     
   0.0000000000000000           0.50000000000000000            15.500000000000000     
   0.0000000000000000           0.50000000000000000            16.000000000000000     
   0.0000000000000000           0.50000000000000000            16.500000000000000     
   0.0000000000000000           0.50000000000000000            17.000000000000000     
   0.0000000000000000           0.50000000000000000            17.500000000000000     
   0.0000000000000000           0.50000000000000000            18.000000000000000     
   0.0000000000000000           0.50000000000000000            18.500000000000000     
   0.0000000000000000           0.50000000000000000            19.000000000000000     
   0.0000000000000000           0.50000000000000000            19.500000000000000     
   0.0000000000000000           0.50000000000000000            20.000000000000000     
   0.0000000000000000            1.0000000000000000            0.0000000000000000     
   0.0000000000000000            1.0000000000000000           0.50000000000000000     
   0.0000000000000000            1.0000000000000000            1.0000000000000000     
   0.0000000000000000            1.0000000000000000            1.5000000000000000     
   0.0000000000000000            1.0000000000000000            2.0000000000000000     
   0.0000000000000000            1.0000000000000000            2.5000000000000000     
   0.0000000000000000            1.0000000000000000            3.0000000000000000     
   0.0000000000000000            1.0000000000000000            3.5000000000000000     
   0.0000000000000000            1.0000000000000000            4.0000000000000000     
   0.0000000000000000            1.0000000000000000            4.5000000000000000     
   0.0000000000000000            1.0000000000000000            5.0000000000000000     
   0.0000000000000000            1.0000000000000000            5.5000000000000000     
   0.0000000000000000            1.0000000000000000            6.0000000000000000     
   0.0000000000000000            1.0000000000000000            6.5000000000000000     
   0.0000000000000000            1.0000000000000000            7.0000000000000000     
   0.0000000000000000            1.0000000000000000            7.5000000000000000     
   0.0000000000000000            1.0000000000000000            8.0000000000000000     
   0.0000000000000000            1.0000000000000000            8.5000000000000000     
   0.0000000000000000            1.0000000000000000            9.0000000000000000     
   0.0000000000000000            1.0000000000000000            9.5000000000000000     
   0.0000000000000000            1.0000000000000000            10.000000000000000     
   0.0000000000000000            1.0000000000000000            10.500000000000000     
   0.0000000000000000            1.0000000000000000            11.000000000000000     
   0.0000000000000000            1.0000000000000000            11.500000000000000     
   0.0000000000000000            1.0000000000000000            12.000000000000000     
   0.0000000000000000            1.0000000000000000            12.500000000000000     
   0.0000000000000000            1.0000000000000000            13.000000000000000     
   0.0000000000000000            1.0000000000000000            13.500000000000000     
   0.0000000000000000            1.0000000000000000            14.000000000000000     
   0.0000000000000000            1.0000000000000000            14.500000000000000     
   0.0000000000000000            1.0000000000000000            15.000000000000000     
[...]
CELL_DATA     4000
SCALARS avpo1 float 1
LOOKUP_TABLE default
   2.58937441E-02
   4.65495177E-02
  0.118741289    
   8.24708566E-02
   9.67233926E-02
   7.14823604E-02
  0.130757585    
   8.05030167E-02
   7.08166361E-02
   5.89550100E-02
   2.16182601E-02
   0.00000000    
   0.00000000    
   0.00000000    
   0.00000000    
   0.00000000    
   0.00000000    
   0.00000000    
   0.00000000    
   0.00000000    
   0.00000000    
   0.00000000    
   0.00000000    
   0.00000000    
   0.00000000    
   0.00000000    
   0.00000000    
   0.00000000    
   0.00000000    
   0.00000000    
   0.00000000    
   0.00000000    
   0.00000000    
   0.00000000    
   0.00000000    
   0.00000000    
   0.00000000    
   0.00000000    
   0.00000000    
   0.00000000    
   5.78478128E-02
  0.108873025    
  0.108639762    
   9.76775810E-02
  0.116240136    
   7.78738335E-02
  0.109467447    
   7.93248042E-02
   5.74422032E-02
   4.18632627E-02
   2.32562795E-02
   1.06740948E-02
   0.00000000    
   0.00000000    
   0.00000000    
   0.00000000    
   0.00000000    
   0.00000000    
   0.00000000    
   0.00000000    
   0.00000000    
   0.00000000    
   0.00000000    
   0.00000000    
   0.00000000    
   0.00000000    
   0.00000000    
   0.00000000    
   0.00000000    
   0.00000000    
   0.00000000    
   0.00000000    
   0.00000000    
   0.00000000    
   0.00000000    
   0.00000000    
   0.00000000    
   0.00000000    
   0.00000000    
   0.00000000    
   4.33324836E-02
  0.102677219    
  0.100078903    
   9.25350189E-02
  0.102851160    
  0.111174606    
  0.109672152    
   6.13147840E-02
   4.27819975E-02
   5.32262549E-02
   2.51367334E-02
   0.00000000    
   0.00000000    
   0.00000000    
   0.00000000    
   0.00000000    
   0.00000000    
   0.00000000    
   0.00000000    
   0.00000000    
   0.00000000    
   0.00000000    
   0.00000000    
   0.00000000    
   0.00000000    
   0.00000000    
   0.00000000    
   0.00000000    
   0.00000000    
   0.00000000    
   0.00000000    
   0.00000000    
   0.00000000    
   0.00000000    
   0.00000000    
   0.00000000    
   0.00000000    
   0.00000000    
   0.00000000    
   0.00000000    
   4.01053280E-02
   9.04332325E-02
  0.115389511    
  0.108168215    
  0.124147609    
  0.127324939    
  0.117535360    
   5.39505407E-02
   3.35399173E-02
   1.32560022E-02
   4.50387299E-02
   1.27833840E-02
   0.00000000    
   0.00000000    
   0.00000000    
   0.00000000    
   0.00000000    
   0.00000000    
   0.00000000    
   0.00000000    
   0.00000000    
   0.00000000    
   0.00000000    
   0.00000000    
   0.00000000    
   0.00000000    
   0.00000000    
   0.00000000    
   0.00000000    
   0.00000000    
   0.00000000    
   0.00000000    
   0.00000000    
   0.00000000    
   0.00000000    
   0.00000000    
   0.00000000    
   0.00000000    
   0.00000000    
   0.00000000    
   2.62225978E-02
   4.65641655E-02
  0.118689522    
   8.29557776E-02
   9.65914503E-02
   7.14365691E-02
  0.130834341    
   8.05421472E-02
   7.08761141E-02
   5.88865317E-02
   2.15812512E-02
   0.00000000    
   0.00000000    
   0.00000000    
   0.00000000    
   0.00000000    
   0.00000000    
   0.00000000    
   0.00000000    
   0.00000000    
   0.00000000    
   0.00000000    
   0.00000000    
   0.00000000    
   0.00000000    
   0.00000000    
   0.00000000    
   0.00000000    
   0.00000000    
   0.00000000    
   0.00000000    
   0.00000000    
   0.00000000    
   0.00000000    
   0.00000000    
   0.00000000    
   0.00000000    
   0.00000000    
   0.00000000    
   0.00000000    
   3.65797020E-02
  0.100302719    
   7.91554675E-02
   7.27169961E-02
  0.104821980    
  0.106959395    
   9.69696790E-02
   8.05050805E-02
   6.51724190E-02
   4.36743312E-02
   6.66170344E-02
   2.15793997E-02
   0.00000000    
   0.00000000    
   0.00000000    
   0.00000000    
   0.00000000    
   0.00000000    
   0.00000000    
   0.00000000    
   0.00000000    
   0.00000000    
   0.00000000    
   0.00000000    
   0.00000000    
   0.00000000    
   0.00000000    
   0.00000000    
   0.00000000    
   0.00000000    
   0.00000000    
   0.00000000    
   0.00000000    
   0.00000000    
   0.00000000    
   0.00000000    
   0.00000000    
   0.00000000    
   0.00000000    
   0.00000000    
   6.59931451E-02
  0.122443177    
  0.135534376    
   7.82480091E-02
  0.100283697    
   9.18296650E-02
   7.86627904E-02
   8.80759731E-02
   6.34514019E-02
   5.34004755E-02
   2.61368770E-02
   0.00000000    
   0.00000000    
   0.00000000    
   0.00000000    
   0.00000000    
   0.00000000    
   0.00000000    
   0.00000000    
   0.00000000    
   0.00000000    
   0.00000000    
   0.00000000    
   0.00000000    
   0.00000000    
   0.00000000    
   0.00000000    
   0.00000000    
   0.00000000    
   0.00000000    
   0.00000000    
   0.00000000    
   0.00000000    
   0.00000000    
   0.00000000    
   0.00000000    
   0.00000000    
   0.00000000    
   0.00000000    
   0.00000000    
   7.64874965E-02
  0.131709725    
  0.152763203    
  0.116689473    
  0.119950347    
  0.104119085    
   8.25248361E-02
   6.61297292E-02
   4.90369052E-02
   1.63433142E-02
   3.22950035E-02
   0.00000000    
   0.00000000    
   0.00000000    
   0.00000000    
   0.00000000    
   0.00000000    
   0.00000000    
   0.00000000    
   0.00000000    
   0.00000000    
   0.00000000    
   0.00000000    
   0.00000000    
   0.00000000    
   0.00000000    
   0.00000000    
   0.00000000    
   0.00000000    
   0.00000000    
   0.00000000    
   0.00000000    
   0.00000000    
   0.00000000    
   0.00000000    
   0.00000000    
   0.00000000    
   0.00000000    
   0.00000000    
   0.00000000    
   8.47710073E-02
  0.114212856    
  0.132939219    
   9.04275179E-02
  0.129406914    
  0.115509123    
   7.45119750E-02
   8.18904415E-02
   3.42968106E-02
   2.01326646E-02
   3.43885124E-02
   0.00000000    
   0.00000000    
   0.00000000    
   0.00000000    
   0.00000000    
   0.00000000    
   0.00000000    
   0.00000000    
   0.00000000    
   0.00000000    
   0.00000000    
   0.00000000    
   0.00000000    
   0.00000000    
   0.00000000    
   0.00000000    
   0.00000000    
   0.00000000    
   0.00000000    
   0.00000000    
   0.00000000    
   0.00000000    
   0.00000000    
   0.00000000    
   0.00000000    
   0.00000000    
   0.00000000    
   0.00000000    
   0.00000000    
   3.66452895E-02
  0.100411735    
   7.93288946E-02
   7.26622343E-02
  0.104854390    
  0.106936641    
   9.70193222E-02
   8.05266425E-02
   6.51681721E-02
   4.36620452E-02
   6.66424036E-02
   2.16155592E-02
   0.00000000    
   0.00000000    
   0.00000000    
   0.00000000    
   0.00000000    
   0.00000000    
   0.00000000    
   0.00000000    
   0.00000000    
   0.00000000    
   0.00000000    
   0.00000000    
   0.00000000    
   0.00000000    
   0.00000000    
   0.00000000    
   0.00000000    
   0.00000000    
   0.00000000    
   0.00000000    
   0.00000000    
   0.00000000    
   0.00000000    
   0.00000000    
   0.00000000    
   0.00000000    
   0.00000000    
   0.00000000    
   4.00261022E-02
   9.04763713E-02
  0.115529157    
  0.108640715    
  0.124108464    
  0.127341077    
  0.117565282    
   5.39579801E-02
   3.35120670E-02
   1.32704973E-02
   4.50657085E-02
   1.27729550E-02
   0.00000000    
   0.00000000    
   0.00000000    
   0.00000000    
   0.00000000    
   0.00000000    
   0.00000000    
   0.00000000    
   0.00000000    
   0.00000000    
   0.00000000    
   0.00000000    
   0.00000000    
   0.00000000    
   0.00000000    
   0.00000000    
   0.00000000    
   0.00000000    
   0.00000000    
   0.00000000    
   0.00000000    
   0.00000000    
   0.00000000    
   0.00000000    
   0.00000000    
   0.00000000    
   0.00000000    
   0.00000000    
   9.11941752E-02
  0.135213807    
  0.142755911    
   9.44803879E-02
   9.52505693E-02
   8.84624124E-02
   8.35437328E-02
   6.12876527E-02
   5.09024672E-02
   3.12250424E-02
   4.69249524E-02
   0.00000000    
   0.00000000    
   0.00000000    
   0.00000000    
   0.00000000    
   0.00000000    
   0.00000000    
   0.00000000    
   0.00000000    
   0.00000000    
   0.00000000    
   0.00000000    
   0.00000000    
   0.00000000    
   0.00000000    
   0.00000000    
   0.00000000    
   0.00000000    
   0.00000000    
   0.00000000    
   0.00000000    
   0.00000000    
   0.00000000    
   0.00000000    
   0.00000000    
   0.00000000    
   0.00000000    
   0.00000000    
   0.00000000    
   8.70153755E-02
   8.20879936E-02
  0.137543321    
  0.101495765    
   7.10069463E-02
   6.29289225E-02
   8.85894224E-02
   4.40833420E-02
   4.46495898E-02
   5.16029596E-02
   2.82150158E-03
   0.00000000    
   0.00000000    
   0.00000000    
   0.00000000    
   0.00000000    
   0.00000000    
   0.00000000    
   0.00000000    
   0.00000000    
   0.00000000    
   0.00000000    
   0.00000000    
   0.00000000    
   0.00000000    
   0.00000000    
   0.00000000    
   0.00000000    
   0.00000000    
   0.00000000    
   0.00000000    
   0.00000000    
   0.00000000    
   0.00000000    
   0.00000000    
   0.00000000    
   0.00000000    
   0.00000000    
   0.00000000    
   0.00000000    
   9.14714709E-02
  0.135054991    
  0.142563105    
   9.44585279E-02
   9.52431336E-02
   8.84735212E-02
   8.35257173E-02
   6.12153597E-02
   5.08965552E-02
   3.12122982E-02
   4.69341166E-02
   0.00000000    
   0.00000000    
   0.00000000    
   0.00000000    
   0.00000000    
   0.00000000    
   0.00000000    
   0.00000000    
   0.00000000    
   0.00000000    
   0.00000000    
   0.00000000    
   0.00000000    
   0.00000000    
   0.00000000    
   0.00000000    
   0.00000000    
   0.00000000    
   0.00000000    
   0.00000000    
   0.00000000    
   0.00000000    
   0.00000000    
   0.00000000    
   0.00000000    
   0.00000000    
   0.00000000    
   0.00000000    
   0.00000000    
   5.78501150E-02
  0.108727410    
  0.108745068    
   9.77208391E-02
  0.116255194    
   7.78949633E-02
  0.109478116    
   7.93115646E-02
   5.74269034E-02
   4.18455526E-02
   2.32667979E-02
   1.06790923E-02
   0.00000000    
   0.00000000    
   0.00000000    
   0.00000000    
   0.00000000    
   0.00000000    
   0.00000000    
   0.00000000    
   0.00000000    
   0.00000000    
   0.00000000    
   0.00000000    
   0.00000000    
   0.00000000    
   0.00000000    
   0.00000000    
   0.00000000    
   0.00000000    
   0.00000000    
   0.00000000    
   0.00000000    
   0.00000000    
   0.00000000    
   0.00000000    
   0.00000000    
   0.00000000    
   0.00000000    
   0.00000000    
   8.47727880E-02
  0.113927856    
  0.132644877    
   9.04673114E-02
  0.129477754    
  0.115546852    
   7.44959638E-02
   8.19187239E-02
   3.42745073E-02
   2.01396439E-02
   3.43563333E-02
   0.00000000    
   0.00000000    
   0.00000000    
   0.00000000    
   0.00000000    
   0.00000000    
   0.00000000    
   0.00000000    
   0.00000000    
   0.00000000    
   0.00000000    
   0.00000000    
   0.00000000    
   0.00000000    
   0.00000000    
   0.00000000    
   0.00000000    
   0.00000000    
   0.00000000    
   0.00000000    
   0.00000000    
   0.00000000    
   0.00000000    
   0.00000000    
   0.00000000    
   0.00000000    
   0.00000000    
   0.00000000    
   0.00000000    
  0.151125431    
  0.118971579    
   8.68344381E-02
  0.102922752    
  0.100448459    
  0.103799514    
   6.20969608E-02
   3.85459103E-02
   1.22108795E-02
   2.17089765E-02
   2.68049794E-03
   0.00000000    
   0.00000000    
   0.00000000    
   0.00000000    
   0.00000000    
   0.00000000    
   0.00000000    
   0.00000000    
   0.00000000    
   0.00000000    
   0.00000000    
   0.00000000    
   0.00000000    
   0.00000000    
   0.00000000    
   0.00000000    
   0.00000000    
   0.00000000    
   0.00000000    
   0.00000000    
   0.00000000    
   0.00000000    
   0.00000000    
   0.00000000    
   0.00000000    
   0.00000000    
   0.00000000    
   0.00000000    
   0.00000000    
  0.292489201    
  0.149556801    
  0.105064839    
  0.111036219    
  0.132517844    
   9.68485177E-02
   8.04976448E-02
   3.69326286E-02
   1.28809639E-08
   1.82329603E-02
   0.00000000    
   0.00000000    
   0.00000000    
   0.00000000    
   0.00000000    
   0.00000000    
   0.00000000    
   0.00000000    
   0.00000000    
   0.00000000    
   0.00000000    
   0.00000000    
   0.00000000    
   0.00000000    
   0.00000000    
   0.00000000    
   0.00000000    
   0.00000000    
   0.00000000    
   0.00000000    
   0.00000000    
   0.00000000    
   0.00000000    
   0.00000000    
   0.00000000    
   0.00000000    
   0.00000000    
   0.00000000    
   0.00000000    
   0.00000000    
  0.151179835    
  0.118952237    
   8.67906138E-02
  0.102928527    
  0.100360610    
  0.103763662    
   6.21026419E-02
   3.85244563E-02
   1.22179370E-02
   2.17290074E-02
   2.68300157E-03
   0.00000000    
   0.00000000    
   0.00000000    
   0.00000000    
   0.00000000    
   0.00000000    
   0.00000000    
   0.00000000    
   0.00000000    
   0.00000000    
   0.00000000    
   0.00000000    
   0.00000000    
   0.00000000    
   0.00000000    
   0.00000000    
   0.00000000    
   0.00000000    
   0.00000000    
   0.00000000    
   0.00000000    
   0.00000000    
   0.00000000    
   0.00000000    
   0.00000000    
   0.00000000    
   0.00000000    
   0.00000000    
   0.00000000    
   6.60711154E-02
  0.122520112    
  0.135440946    
   7.82518610E-02
  0.100268297    
   9.17730108E-02
   7.86734819E-02
   8.80596116E-02
   6.34764507E-02
   5.33928014E-02
   2.61304490E-02
   0.00000000    
   0.00000000    
   0.00000000    
   0.00000000    
   0.00000000    
   0.00000000    
   0.00000000    
   0.00000000    
   0.00000000    
   0.00000000    
   0.00000000    
   0.00000000    
   0.00000000    
   0.00000000    
   0.00000000    
   0.00000000    
   0.00000000    
   0.00000000    
   0.00000000    
   0.00000000    
   0.00000000    
   0.00000000    
   0.00000000    
   0.00000000    
   0.00000000    
   0.00000000    
   0.00000000    
   0.00000000    
   0.00000000    
   4.32734229E-02
  0.102725670    
  0.100021549    
   9.24704075E-02
  0.102799550    
  0.111160256    
  0.109656699    
   6.13555387E-02
   4.27821726E-02
   5.32707050E-02
   2.51351632E-02
   0.00000000    
   0.00000000    
   0.00000000    
   0.00000000    
   0.00000000    
   0.00000000    
   0.00000000    
   0.00000000    
   0.00000000    
   0.00000000    
   0.00000000    
   0.00000000    
   0.00000000    
   0.00000000    
   0.00000000    
   0.00000000    
   0.00000000    
   0.00000000    
   0.00000000    
   0.00000000    
   0.00000000    
   0.00000000    
   0.00000000    
   0.00000000    
   0.00000000    
   0.00000000    
   0.00000000    
   0.00000000    
   0.00000000    
   8.69782120E-02
   8.20890740E-02
  0.137490734    
  0.101503342    
   7.10067526E-02
   6.29112124E-02
   8.86747241E-02
   4.40883487E-02
   4.46837135E-02
   5.15831485E-02
   2.82301311E-03
   0.00000000    
   0.00000000    
   0.00000000    
   0.00000000    
   0.00000000    
   0.00000000    
   0.00000000    
   0.00000000    
   0.00000000    
   0.00000000    
   0.00000000    
   0.00000000    
   0.00000000    
   0.00000000    
   0.00000000    
   0.00000000    
   0.00000000    
   0.00000000    
   0.00000000    
   0.00000000    
   0.00000000    
   0.00000000    
   0.00000000    
   0.00000000    
   0.00000000    
   0.00000000    
   0.00000000    
   0.00000000    
   0.00000000    
   5.00370339E-02
  0.196998090    
  0.108384468    
   6.31703362E-02
  0.141248241    
  0.119274065    
   1.88095104E-02
   2.81438492E-02
   2.35596076E-02
   2.19878312E-02
   1.12890126E-02
   0.00000000    
   0.00000000    
   0.00000000    
   0.00000000    
   0.00000000    
   0.00000000    
   0.00000000    
   0.00000000    
   0.00000000    
   0.00000000    
   0.00000000    
   0.00000000    
   0.00000000    
   0.00000000    
   0.00000000    
   0.00000000    
   0.00000000    
   0.00000000    
   0.00000000    
   0.00000000    
   0.00000000    
   0.00000000    
   0.00000000    
   0.00000000    
   0.00000000    
   0.00000000    
   0.00000000    
   0.00000000    
   0.00000000    
   8.71898681E-02
   8.19051862E-02
  0.137307808    
  0.101634957    
   7.10266232E-02
   6.29085824E-02
   8.85407627E-02
   4.40890044E-02
   4.46825214E-02
   5.15901633E-02
   2.82107457E-03
   0.00000000    
   0.00000000    
   0.00000000    
   0.00000000    
   0.00000000    
   0.00000000    
   0.00000000    
   0.00000000    
   0.00000000    
   0.00000000    
   0.00000000    
   0.00000000    
   0.00000000    
   0.00000000    
   0.00000000    
   0.00000000    
   0.00000000    
   0.00000000    
   0.00000000    
   0.00000000    
   0.00000000    
   0.00000000    
   0.00000000    
   0.00000000    
   0.00000000    
   0.00000000    
   0.00000000    
   0.00000000    
   0.00000000    
   4.34140898E-02
  0.102759130    
   9.98444557E-02
   9.25202966E-02
  0.102879405    
  0.111146472    
  0.109657675    
   6.13954924E-02
   4.27527428E-02
   5.32134809E-02
   2.51434222E-02
   0.00000000    
   0.00000000    
   0.00000000    
   0.00000000    
   0.00000000    
   0.00000000    
   0.00000000    
   0.00000000    
   0.00000000    
   0.00000000    
   0.00000000    
   0.00000000    
   0.00000000    
   0.00000000    
   0.00000000    
   0.00000000    
   0.00000000    
   0.00000000    
   0.00000000    
   0.00000000    
   0.00000000    
   0.00000000    
   0.00000000    
   0.00000000    
   0.00000000    
   0.00000000    
   0.00000000    
   0.00000000    
   0.00000000    
   7.65290558E-02
  0.131762683    
  0.152853936    
  0.116390392    
  0.119933933    
  0.104081966    
   8.25250596E-02
   6.60950467E-02
   4.90221642E-02
   1.63193662E-02
   3.22584920E-02
   0.00000000    
   0.00000000    
   0.00000000    
   0.00000000    
   0.00000000    
   0.00000000    
   0.00000000    
   0.00000000    
   0.00000000    
   0.00000000    
   0.00000000    
   0.00000000    
   0.00000000    
   0.00000000    
   0.00000000    
   0.00000000    
   0.00000000    
   0.00000000    
   0.00000000    
   0.00000000    
   0.00000000    
   0.00000000    
   0.00000000    
   0.00000000    
   0.00000000    
   0.00000000    
   0.00000000    
   0.00000000    
   0.00000000    
  0.292517394    
  0.149798766    
  0.105090380    
  0.111008212    
  0.132556811    
   9.67909172E-02
   8.04903433E-02
   3.69243361E-02
   1.28586537E-08
   1.81971770E-02
   0.00000000    
   0.00000000    
   0.00000000    
   0.00000000    
   0.00000000    
   0.00000000    
   0.00000000    
   0.00000000    
   0.00000000    
   0.00000000    
   0.00000000    
   0.00000000    
   0.00000000    
   0.00000000    
   0.00000000    
   0.00000000    
   0.00000000    
   0.00000000    
   0.00000000    
   0.00000000    
   0.00000000    
   0.00000000    
   0.00000000    
   0.00000000    
   0.00000000    
   0.00000000    
   0.00000000    
   0.00000000    
   0.00000000    
   0.00000000    
  0.276379824    
  0.139973238    
   3.93963493E-02
   3.87045294E-02
   6.69353679E-02
   5.04164919E-02
   9.40484256E-02
  0.150139049    
   7.91602209E-03
   3.63925621E-02
   0.00000000    
   0.00000000    
   0.00000000    
   0.00000000    
   0.00000000    
   0.00000000    
   0.00000000    
   0.00000000    
   0.00000000    
   0.00000000    
   0.00000000    
   0.00000000    
   0.00000000    
   0.00000000    
   0.00000000    
   0.00000000    
   0.00000000    