# vtk DataFile Version 2.0
avpo2
ASCII
DATASET STRUCTURED_GRID 
DIMENSIONS   41    11    11
POINTS     4961 float
   0.0000000000000000            0.0000000000000000            0.0000000000000000     
   0.0000000000000000            0.0000000000000000           0.50000000000000000     
   0.0000000000000000            0.0000000000000000            1.0000000000000000     
   0.0000000000000000            0.0000000000000000            1.5000000000000000     
   0.0000000000000000            0.0000000000000000            2.0000000000000000     
   0.0000000000000000            0.0000000000000000            2.5000000000000000     
   0.0000000000000000            0.0000000000000000            3.0000000000000000     
   0.0000000000000000            0.0000000000000000            3.5000000000000000     
   0.0000000000000000            0.0000000000000000            4.0000000000000000     
   0.0000000000000000            0.0000000000000000            4.5000000000000000     
   0.0000000000000000            0.0000000000000000            5.0000000000000000     
   0.0000000000000000            0.0000000000000000            5.5000000000000000     
   0.0000000000000000            0.0000000000000000            6.0000000000000000     
   0.0000000000000000            0.0000000000000000            6.5000000000000000     
   0.0000000000000000            0.0000000000000000            7.0000000000000000     
   0.0000000000000000            0.0000000000000000            7.5000000000000000     
   0.0000000000000000            0.0000000000000000            8.0000000000000000     
   0.0000000000000000            0.0000000000000000            8.5000000000000000     
   0.0000000000000000            0.0000000000000000            9.0000000000000000     
   0.0000000000000000            0.0000000000000000            9.5000000000000000     
   0.0000000000000000            0.0000000000000000            10.000000000000000     
   0.0000000000000000            0.0000000000000000            10.500000000000000     
   0.0000000000000000            0.0000000000000000            11.000000000000000     
   0.0000000000000000            0.0000000000000000            11.500000000000000     
   0.0000000000000000            0.0000000000000000            12.000000000000000     
   0.0000000000000000            0.0000000000000000            12.500000000000000     
   0.0000000000000000            0.0000000000000000            13.000000000000000     
   0.0000000000000000            0.0000000000000000            13.500000000000000     
   0.0000000000000000            0.0000000000000000            14.000000000000000     
   0.0000000000000000            0.0000000000000000            14.500000000000000     
   0.0000000000000000            0.0000000000000000            15.000000000000000     
   0.0000000000000000            0.0000000000000000            15.500000000000000     
   0.0000000000000000            0.0000000000000000            16.000000000000000     
   0.0000000000000000            0.0000000000000000            16.500000000000000     
   0.0000000000000000            0.0000000000000000            17.000000000000000     
   0.0000000000000000            0.0000000000000000            17.500000000000000     
   0.0000000000000000            0.0000000000000000            18.000000000000000     
   0.0000000000000000            0.0000000000000000            18.500000000000000     
   0.0000000000000000            0.0000000000000000            19.000000000000000     
   0.0000000000000000            0.0000000000000000            19.500000000000000     
   0.0000000000000000            0.0000000000000000            20.000000000000000     
   0.0000000000000000           0.50000000000000000            0.0000000000000000     
   0.0000000000000000           0.50000000000000000           0.50000000000000000     
   0.0000000000000000           0.50000000000000000            1.0000000000000000     
   0.0000000000000000           0.50000000000000000            1.5000000000000000     
   0.0000000000000000           0.50000000000000000            2.0000000000000000     
   0.0000000000000000           0.50000000000000000            2.5000000000000000     
   0.0000000000000000           0.50000000000000000            3.0000000000000000     
   0.0000000000000000           0.50000000000000000            3.5000000000000000     
   0.0000000000000000           0.50000000000000000            4.0000000000000000     
   0.0000000000000000           0.50000000000000000            4.5000000000000000     
   0.0000000000000000           0.50000000000000000            5.0000000000000000     
   0.0000000000000000           0.50000000000000000            5.5000000000000000     
   0.0000000000000000           0.50000000000000000            6.0000000000000000     
   0.0000000000000000           0.50000000000000000            6.5000000000000000     
   0.0000000000000000           0.50000000000000000            7.0000000000000000     
   0.0000000000000000           0.50000000000000000            7.5000000000000000     
   0.0000000000000000           0.50000000000000000            8.0000000000000000     
   0.0000000000000000           0.50000000000000000            8.5000000000000000     
   0.0000000000000000           0.50000000000000000            9.0000000000000000     
   0.0000000000000000           0.50000000000000000            9.5000000000000000     
   0.0000000000000000           0.50000000000000000            10.000000000000000     
   0.0000000000000000           0.50000000000000000            10.500000000000000     
   0.0000000000000000           0.50000000000000000            11.000000000000000     
   0.0000000000000000           0.50000000000000000            11.500000000000000     
   0.0000000000000000           0.50000000000000000            12.000000000000000     
   0.0000000000000000           0.50000000000000000            12.500000000000000     
   0.0000000000000000           0.50000000000000000            13.000000000000000     
   0.0000000000000000           0.50000000000000000            13.500000000000000     
   0.0000000000000000           0.50000000000000000            14.000000000000000     
   0.0000000000000000           0.50000000000000000            14.500000000000000     
   0.0000000000000000           0.50000000000000000            15.000000000000000     
   0.0000000000000000           0.50000000000000000            15.500000000000000     
   0.0000000000000000           0.50000000000000000            16.000000000000000     
   0.0000000000000000           0.50000000000000000            16.500000000000000     
   0.0000000000000000           0.50000000000000000            17.000000000000000     
   0.0000000000000000           0.50000000000000000            17.500000000000000     
   0.0000000000000000           0.50000000000000000            18.000000000000000     
   0.0000000000000000           0.50000000000000000            18.500000000000000     
   0.0000000000000000           0.50000000000000000            19.000000000000000     
   0.0000000000000000           0.50000000000000000            19.500000000000000     
   0.0000000000000000           0.50000000000000000            20.000000000000000     
   0.0000000000000000            1.0000000000000000            0.0000000000000000     
   0.0000000000000000            1.0000000000000000           0.50000000000000000     
   0.0000000000000000            1.0000000000000000            1.0000000000000000     
   0.0000000000000000            1.0000000000000000            1.5000000000000000     
   0.0000000000000000            1.0000000000000000            2.0000000000000000     
   0.0000000000000000            1.0000000000000000            2.5000000000000000     
   0.0000000000000000            1.0000000000000000            3.0000000000000000     
   0.0000000000000000            1.0000000000000000            3.5000000000000000     
   0.0000000000000000            1.0000000000000000            4.0000000000000000     
   0.0000000000000000            1.0000000000000000            4.5000000000000000     
   0.0000000000000000            1.0000000000000000            5.0000000000000000     
   0.0000000000000000            1.0000000000000000            5.5000000000000000     
   0.0000000000000000            1.0000000000000000            6.0000000000000000     
   0.0000000000000000            1.0000000000000000            6.5000000000000000     
   0.0000000000000000            1.0000000000000000            7.0000000000000000     
   0.0000000000000000            1.0000000000000000            7.5000000000000000     
   0.0000000000000000            1.0000000000000000            8.0000000000000000     
   0.0000000000000000            1.0000000000000000            8.5000000000000000     
   0.0000000000000000            1.0000000000000000            9.0000000000000000     
   0.0000000000000000            1.0000000000000000            9.5000000000000000     
   0.0000000000000000            1.0000000000000000            10.000000000000000     
   0.0000000000000000            1.0000000000000000            10.500000000000000     
   0.0000000000000000            1.0000000000000000            11.000000000000000     
   0.0000000000000000            1.0000000000000000            11.500000000000000     
   0.0000000000000000            1.0000000000000000            12.000000000000000     
   0.0000000000000000            1.0000000000000000            12.500000000000000     
   0.0000000000000000            1.0000000000000000            13.000000000000000     
   0.0000000000000000            1.0000000000000000            13.500000000000000     
   0.0000000000000000            1.0000000000000000            14.000000000000000     
   0.0000000000000000            1.0000000000000000            14.500000000000000     
   0.0000000000000000            1.0000000000000000            15.000000000000000     
[...]
CELL_DATA     4000
SCALARS avpo2 float 1
LOOKUP_TABLE default
   3.65797058E-02
  0.100302719    
   7.91554675E-02
   7.27169961E-02
  0.104821973    
  0.106959388    
   9.69696715E-02
   8.05050731E-02
   6.51724190E-02
   4.36743237E-02
   6.66170344E-02
   2.15794072E-02
   0.00000000    
   0.00000000    
   0.00000000    
   0.00000000    
   0.00000000    
   0.00000000    
   0.00000000    
   0.00000000    
   0.00000000    
   0.00000000    
   0.00000000    
   0.00000000    
   0.00000000    
   0.00000000    
   0.00000000    
   0.00000000    
   0.00000000    
   0.00000000    
   0.00000000    
   0.00000000    
   0.00000000    
   0.00000000    
   0.00000000    
   0.00000000    
   0.00000000    
   0.00000000    
   0.00000000    
   0.00000000    
   6.59931451E-02
  0.122443169    
  0.135534361    
   7.82480016E-02
  0.100283690    
   9.18296576E-02
   7.86627829E-02
   8.80759656E-02
   6.34514019E-02
   5.34004718E-02
   2.61368789E-02
   0.00000000    
   0.00000000    
   0.00000000    
   0.00000000    
   0.00000000    
   0.00000000    
   0.00000000    
   0.00000000    
   0.00000000    
   0.00000000    
   0.00000000    
   0.00000000    
   0.00000000    
   0.00000000    
   0.00000000    
   0.00000000    
   0.00000000    
   0.00000000    
   0.00000000    
   0.00000000    
   0.00000000    
   0.00000000    
   0.00000000    
   0.00000000    
   0.00000000    
   0.00000000    
   0.00000000    
   0.00000000    
   0.00000000    
   7.64874890E-02
  0.131709725    
  0.152763203    
  0.116689473    
  0.119950339    
  0.104119085    
   8.25248361E-02
   6.61297292E-02
   4.90369014E-02
   1.63433142E-02
   3.22950073E-02
   0.00000000    
   0.00000000    
   0.00000000    
   0.00000000    
   0.00000000    
   0.00000000    
   0.00000000    
   0.00000000    
   0.00000000    
   0.00000000    
   0.00000000    
   0.00000000    
   0.00000000    
   0.00000000    
   0.00000000    
   0.00000000    
   0.00000000    
   0.00000000    
   0.00000000    
   0.00000000    
   0.00000000    
   0.00000000    
   0.00000000    
   0.00000000    
   0.00000000    
   0.00000000    
   0.00000000    
   0.00000000    
   0.00000000    
   8.47709998E-02
  0.114212841    
  0.132939219    
   9.04275179E-02
  0.129406899    
  0.115509108    
   7.45119750E-02
   8.18904415E-02
   3.42968106E-02
   2.01326683E-02
   3.43885124E-02
   0.00000000    
   0.00000000    
   0.00000000    
   0.00000000    
   0.00000000    
   0.00000000    
   0.00000000    
   0.00000000    
   0.00000000    
   0.00000000    
   0.00000000    
   0.00000000    
   0.00000000    
   0.00000000    
   0.00000000    
   0.00000000    
   0.00000000    
   0.00000000    
   0.00000000    
   0.00000000    
   0.00000000    
   0.00000000    
   0.00000000    
   0.00000000    
   0.00000000    
   0.00000000    
   0.00000000    
   0.00000000    
   0.00000000    
   3.66452895E-02
  0.100411721    
   7.93288797E-02
   7.26622343E-02
  0.104854390    
  0.106936648    
   9.70193222E-02
   8.05266500E-02
   6.51681647E-02
   4.36620526E-02
   6.66424111E-02
   2.16155592E-02
   0.00000000    
   0.00000000    
   0.00000000    
   0.00000000    
   0.00000000    
   0.00000000    
   0.00000000    
   0.00000000    
   0.00000000    
   0.00000000    
   0.00000000    
   0.00000000    
   0.00000000    
   0.00000000    
   0.00000000    
   0.00000000    
   0.00000000    
   0.00000000    
   0.00000000    
   0.00000000    
   0.00000000    
   0.00000000    
   0.00000000    
   0.00000000    
   0.00000000    
   0.00000000    
   0.00000000    
   0.00000000    
   2.58937441E-02
   4.65495177E-02
  0.118741296    
   8.24708566E-02
   9.67233926E-02
   7.14823604E-02
  0.130757600    
   8.05030242E-02
   7.08166510E-02
   5.89550138E-02
   2.16182601E-02
   0.00000000    
   0.00000000    
   0.00000000    
   0.00000000    
   0.00000000    
   0.00000000    
   0.00000000    
   0.00000000    
   0.00000000    
   0.00000000    
   0.00000000    
   0.00000000    
   0.00000000    
   0.00000000    
   0.00000000    
   0.00000000    
   0.00000000    
   0.00000000    
   0.00000000    
   0.00000000    
   0.00000000    
   0.00000000    
   0.00000000    
   0.00000000    
   0.00000000    
   0.00000000    
   0.00000000    
   0.00000000    
   0.00000000    
   5.78478128E-02
  0.108873025    
  0.108639762    
   9.76775885E-02
  0.116240144    
   7.78738409E-02
  0.109467462    
   7.93248042E-02
   5.74421994E-02
   4.18632664E-02
   2.32562721E-02
   1.06740938E-02
   0.00000000    
   0.00000000    
   0.00000000    
   0.00000000    
   0.00000000    
   0.00000000    
   0.00000000    
   0.00000000    
   0.00000000    
   0.00000000    
   0.00000000    
   0.00000000    
   0.00000000    
   0.00000000    
   0.00000000    
   0.00000000    
   0.00000000    
   0.00000000    
   0.00000000    
   0.00000000    
   0.00000000    
   0.00000000    
   0.00000000    
   0.00000000    
   0.00000000    
   0.00000000    
   0.00000000    
   0.00000000    
   4.33324836E-02
  0.102677219    
  0.100078911    
   9.25350189E-02
  0.102851160    
  0.111174613    
  0.109672166    
   6.13147914E-02
   4.27820012E-02
   5.32262474E-02
   2.51367316E-02
   0.00000000    
   0.00000000    
   0.00000000    
   0.00000000    
   0.00000000    
   0.00000000    
   0.00000000    
   0.00000000    
   0.00000000    
   0.00000000    
   0.00000000    
   0.00000000    
   0.00000000    
   0.00000000    
   0.00000000    
   0.00000000    
   0.00000000    
   0.00000000    
   0.00000000    
   0.00000000    
   0.00000000    
   0.00000000    
   0.00000000    
   0.00000000    
   0.00000000    
   0.00000000    
   0.00000000    
   0.00000000    
   0.00000000    
   4.01053317E-02
   9.04332325E-02
  0.115389518    
  0.108168215    
  0.124147616    
  0.127324939    
  0.117535368    
   5.39505444E-02
   3.35399173E-02
   1.32560022E-02
   4.50387187E-02
   1.27833812E-02
   0.00000000    
   0.00000000    
   0.00000000    
   0.00000000    
   0.00000000    
   0.00000000    
   0.00000000    
   0.00000000    
   0.00000000    
   0.00000000    
   0.00000000    
   0.00000000    
   0.00000000    
   0.00000000    
   0.00000000    
   0.00000000    
   0.00000000    
   0.00000000    
   0.00000000    
   0.00000000    
   0.00000000    
   0.00000000    
   0.00000000    
   0.00000000    
   0.00000000    
   0.00000000    
   0.00000000    
   0.00000000    
   2.62225997E-02
   4.65641692E-02
  0.118689522    
   8.29557776E-02
   9.65914503E-02
   7.14365616E-02
  0.130834341    
   8.05421472E-02
   7.08761141E-02
   5.88865206E-02
   2.15812456E-02
   0.00000000    
   0.00000000    
   0.00000000    
   0.00000000    
   0.00000000    
   0.00000000    
   0.00000000    
   0.00000000    
   0.00000000    
   0.00000000    
   0.00000000    
   0.00000000    
   0.00000000    
   0.00000000    
   0.00000000    
   0.00000000    
   0.00000000    
   0.00000000    
   0.00000000    
   0.00000000    
   0.00000000    
   0.00000000    
   0.00000000    
   0.00000000    
   0.00000000    
   0.00000000    
   0.00000000    
   0.00000000    
   0.00000000    
   8.47727880E-02
  0.113927856    
  0.132644877    
   9.04673114E-02
  0.129477754    
  0.115546845    
   7.44959563E-02
   8.19187239E-02
   3.42745073E-02
   2.01396421E-02
   3.43563408E-02
   0.00000000    
   0.00000000    
   0.00000000    
   0.00000000    
   0.00000000    
   0.00000000    
   0.00000000    
   0.00000000    
   0.00000000    
   0.00000000    
   0.00000000    
   0.00000000    
   0.00000000    
   0.00000000    
   0.00000000    
   0.00000000    
   0.00000000    
   0.00000000    
   0.00000000    
   0.00000000    
   0.00000000    
   0.00000000    
   0.00000000    
   0.00000000    
   0.00000000    
   0.00000000    
   0.00000000    
   0.00000000    
   0.00000000    
  0.151125416    
  0.118971571    
   8.68344456E-02
  0.102922745    
  0.100448459    
  0.103799514    
   6.20969608E-02
   3.85459065E-02
   1.22108785E-02
   2.17089728E-02
   2.68049841E-03
   0.00000000    
   0.00000000    
   0.00000000    
   0.00000000    
   0.00000000    
   0.00000000    
   0.00000000    
   0.00000000    
   0.00000000    
   0.00000000    
   0.00000000    
   0.00000000    
   0.00000000    
   0.00000000    
   0.00000000    
   0.00000000    
   0.00000000    
   0.00000000    
   0.00000000    
   0.00000000    
   0.00000000    
   0.00000000    
   0.00000000    
   0.00000000    
   0.00000000    
   0.00000000    
   0.00000000    
   0.00000000    
   0.00000000    
  0.292489201    
  0.149556801    
  0.105064847    
  0.111036219    
  0.132517859    
   9.68485251E-02
   8.04976448E-02
   3.69326323E-02
   1.28809647E-08
   1.82329584E-02
   0.00000000    
   0.00000000    
   0.00000000    
   0.00000000    
   0.00000000    
   0.00000000    
   0.00000000    
   0.00000000    
   0.00000000    
   0.00000000    
   0.00000000    
   0.00000000    
   0.00000000    
   0.00000000    
   0.00000000    
   0.00000000    
   0.00000000    
   0.00000000    
   0.00000000    
   0.00000000    
   0.00000000    
   0.00000000    
   0.00000000    
   0.00000000    
   0.00000000    
   0.00000000    
   0.00000000    
   0.00000000    
   0.00000000    
   0.00000000    
  0.151179820    
  0.118952230    
   8.67906213E-02
  0.102928534    
  0.100360617    
  0.103763662    
   6.21026419E-02
   3.85244526E-02
   1.22179352E-02
   2.17290092E-02
   2.68300273E-03
   0.00000000    
   0.00000000    
   0.00000000    
   0.00000000    
   0.00000000    
   0.00000000    
   0.00000000    
   0.00000000    
   0.00000000    
   0.00000000    
   0.00000000    
   0.00000000    
   0.00000000    
   0.00000000    
   0.00000000    
   0.00000000    
   0.00000000    
   0.00000000    
   0.00000000    
   0.00000000    
   0.00000000    
   0.00000000    
   0.00000000    
   0.00000000    
   0.00000000    
   0.00000000    
   0.00000000    
   0.00000000    
   0.00000000    
   6.60711154E-02
  0.122520104    
  0.135440931    
   7.82518610E-02
  0.100268297    
   9.17730033E-02
   7.86734819E-02
   8.80596191E-02
   6.34764507E-02
   5.33928089E-02
   2.61304472E-02
   0.00000000    
   0.00000000    
   0.00000000    
   0.00000000    
   0.00000000    
   0.00000000    
   0.00000000    
   0.00000000    
   0.00000000    
   0.00000000    
   0.00000000    
   0.00000000    
   0.00000000    
   0.00000000    
   0.00000000    
   0.00000000    
   0.00000000    
   0.00000000    
   0.00000000    
   0.00000000    
   0.00000000    
   0.00000000    
   0.00000000    
   0.00000000    
   0.00000000    
   0.00000000    
   0.00000000    
   0.00000000    
   0.00000000    
   4.00261022E-02
   9.04763639E-02
  0.115529165    
  0.108640715    
  0.124108449    
  0.127341062    
  0.117565282    
   5.39579801E-02
   3.35120670E-02
   1.32704992E-02
   4.50657047E-02
   1.27729531E-02
   0.00000000    
   0.00000000    
   0.00000000    
   0.00000000    
   0.00000000    
   0.00000000    
   0.00000000    
   0.00000000    
   0.00000000    
   0.00000000    
   0.00000000    
   0.00000000    
   0.00000000    
   0.00000000    
   0.00000000    
   0.00000000    
   0.00000000    
   0.00000000    
   0.00000000    
   0.00000000    
   0.00000000    
   0.00000000    
   0.00000000    
   0.00000000    
   0.00000000    
   0.00000000    
   0.00000000    
   0.00000000    
   9.11941752E-02
  0.135213807    
  0.142755911    
   9.44803953E-02
   9.52505693E-02
   8.84624124E-02
   8.35437477E-02
   6.12876602E-02
   5.09024709E-02
   3.12250443E-02
   4.69249524E-02
   0.00000000    
   0.00000000    
   0.00000000    
   0.00000000    
   0.00000000    
   0.00000000    
   0.00000000    
   0.00000000    
   0.00000000    
   0.00000000    
   0.00000000    
   0.00000000    
   0.00000000    
   0.00000000    
   0.00000000    
   0.00000000    
   0.00000000    
   0.00000000    
   0.00000000    
   0.00000000    
   0.00000000    
   0.00000000    
   0.00000000    
   0.00000000    
   0.00000000    
   0.00000000    
   0.00000000    
   0.00000000    
   0.00000000    
   8.70153755E-02
   8.20879936E-02
  0.137543321    
  0.101495765    
   7.10069314E-02
   6.29289225E-02
   8.85894299E-02
   4.40833494E-02
   4.46496010E-02
   5.16029596E-02
   2.82150228E-03
   0.00000000    
   0.00000000    
   0.00000000    
   0.00000000    
   0.00000000    
   0.00000000    
   0.00000000    
   0.00000000    
   0.00000000    
   0.00000000    
   0.00000000    
   0.00000000    
   0.00000000    
   0.00000000    
   0.00000000    
   0.00000000    
   0.00000000    
   0.00000000    
   0.00000000    
   0.00000000    
   0.00000000    
   0.00000000    
   0.00000000    
   0.00000000    
   0.00000000    
   0.00000000    
   0.00000000    
   0.00000000    
   0.00000000    
   9.14714709E-02
  0.135054991    
  0.142563105    
   9.44585279E-02
   9.52431411E-02
   8.84735212E-02
   8.35257173E-02
   6.12153597E-02
   5.08965552E-02
   3.12122982E-02
   4.69341129E-02
   0.00000000    
   0.00000000    
   0.00000000    
   0.00000000    
   0.00000000    
   0.00000000    
   0.00000000    
   0.00000000    
   0.00000000    
   0.00000000    
   0.00000000    
   0.00000000    
   0.00000000    
   0.00000000    
   0.00000000    
   0.00000000    
   0.00000000    
   0.00000000    
   0.00000000    
   0.00000000    
   0.00000000    
   0.00000000    
   0.00000000    
   0.00000000    
   0.00000000    
   0.00000000    
   0.00000000    
   0.00000000    
   0.00000000    
   5.78501113E-02
  0.108727403    
  0.108745068    
   9.77208391E-02
  0.116255194    
   7.78949559E-02
  0.109478116    
   7.93115646E-02
   5.74269034E-02
   4.18455526E-02
   2.32668035E-02
   1.06790941E-02
   0.00000000    
   0.00000000    
   0.00000000    
   0.00000000    
   0.00000000    
   0.00000000    
   0.00000000    
   0.00000000    
   0.00000000    
   0.00000000    
   0.00000000    
   0.00000000    
   0.00000000    
   0.00000000    
   0.00000000    
   0.00000000    
   0.00000000    
   0.00000000    
   0.00000000    
   0.00000000    
   0.00000000    
   0.00000000    
   0.00000000    
   0.00000000    
   0.00000000    
   0.00000000    
   0.00000000    
   0.00000000    
   7.65290558E-02
  0.131762683    
  0.152853936    
  0.116390392    
  0.119933933    
  0.104081959    
   8.25250596E-02
   6.60950467E-02
   4.90221605E-02
   1.63193662E-02
   3.22584994E-02
   0.00000000    
   0.00000000    
   0.00000000    
   0.00000000    
   0.00000000    
   0.00000000    
   0.00000000    
   0.00000000    
   0.00000000    
   0.00000000    
   0.00000000    
   0.00000000    
   0.00000000    
   0.00000000    
   0.00000000    
   0.00000000    
   0.00000000    
   0.00000000    
   0.00000000    
   0.00000000    
   0.00000000    
   0.00000000    
   0.00000000    
   0.00000000    
   0.00000000    
   0.00000000    
   0.00000000    
   0.00000000    
   0.00000000    
  0.292517394    
  0.149798766    
  0.105090372    
  0.111008212    
  0.132556811    
   9.67909098E-02
   8.04903433E-02
   3.69243324E-02
   1.28586537E-08
   1.81971770E-02
   0.00000000    
   0.00000000    
   0.00000000    
   0.00000000    
   0.00000000    
   0.00000000    
   0.00000000    
   0.00000000    
   0.00000000    
   0.00000000    
   0.00000000    
   0.00000000    
   0.00000000    
   0.00000000    
   0.00000000    
   0.00000000    
   0.00000000    
   0.00000000    
   0.00000000    
   0.00000000    
   0.00000000    
   0.00000000    
   0.00000000    
   0.00000000    
   0.00000000    
   0.00000000    
   0.00000000    
   0.00000000    
   0.00000000    
   0.00000000    
  0.276379824    
  0.139973238    
   3.93963493E-02
   3.87045294E-02
   6.69353604E-02
   5.04164919E-02
   9.40484256E-02
  0.150139049    
   7.91602302E-03
   3.63925621E-02
   0.00000000    
   0.00000000    
   0.00000000    
   0.00000000    
   0.00000000    
   0.00000000    
   0.00000000    
   0.00000000    
   0.00000000    
   0.00000000    
   0.00000000    
   0.00000000    
   0.00000000    
   0.00000000    
   0.00000000    
   0.00000000    
   0.00000000    
   0.00000000    
   0.00000000    
   0.00000000    
   0.00000000    
   0.00000000    
   0.00000000    
   0.00000000    
   0.00000000    
   0.00000000    
   0.00000000    
   0.00000000    
   0.00000000    
   0.00000000    
  0.292480052    
  0.149274930    
  0.105213806    
  0.111176401    
  0.132402912    
   9.68565792E-02
   8.05186704E-02
   3.69354412E-02
   1.29278259E-08
   1.82240643E-02
   0.00000000    
   0.00000000    
   0.00000000    
   0.00000000    
   0.00000000    
   0.00000000    
   0.00000000    
   0.00000000    
   0.00000000    
   0.00000000    
   0.00000000    
   0.00000000    
   0.00000000    
   0.00000000    
   0.00000000    
   0.00000000    
   0.00000000    
   0.00000000    
   0.00000000    
   0.00000000    
   0.00000000    
   0.00000000    
   0.00000000    
   0.00000000    
   0.00000000    
   0.00000000    
   0.00000000    
   0.00000000    
   0.00000000    
   0.00000000    
   7.64116421E-02
  0.131594345    
  0.152772918    
  0.116717346    
  0.119967617    
  0.104074039    
   8.25828090E-02
   6.61327541E-02
   4.89775687E-02
   1.63552016E-02
   3.22927497E-02
   0.00000000    
   0.00000000    
   0.00000000    
   0.00000000    
   0.00000000    
   0.00000000    
   0.00000000    
   0.00000000    
   0.00000000    
   0.00000000    
   0.00000000    
   0.00000000    
   0.00000000    
   0.00000000    
   0.00000000    
   0.00000000    
   0.00000000    
   0.00000000    
   0.00000000    
   0.00000000    
   0.00000000    
   0.00000000    
   0.00000000    
   0.00000000    
   0.00000000    
   0.00000000    
   0.00000000    
   0.00000000    
   0.00000000    
   4.32734191E-02
  0.102725662    
  0.100021556    
   9.24704075E-02
  0.102799542    
  0.111160241    
  0.109656692    
   6.13555387E-02
   4.27821726E-02
   5.32707013E-02
   2.51351595E-02
   0.00000000    
   0.00000000    
   0.00000000    
   0.00000000    
   0.00000000    
   0.00000000    
   0.00000000    
   0.00000000    
   0.00000000    
   0.00000000    
   0.00000000    
   0.00000000    
   0.00000000    
   0.00000000    
   0.00000000    
   0.00000000    
   0.00000000    
   0.00000000    
   0.00000000    
   0.00000000    
   0.00000000    
   0.00000000    
   0.00000000    
   0.00000000    
   0.00000000    
   0.00000000    
   0.00000000    
   0.00000000    
   0.00000000    
   8.69782120E-02
   8.20890740E-02
  0.137490734    
  0.101503350    
   7.10067451E-02
   6.29112124E-02
   8.86747316E-02
   4.40883487E-02
   4.46837135E-02
   5.15831448E-02
   2.82301288E-03
   0.00000000    
   0.00000000    
   0.00000000    
   0.00000000    
   0.00000000    
   0.00000000    
   0.00000000    
   0.00000000    
   0.00000000    
   0.00000000    
   0.00000000    
   0.00000000    
   0.00000000    
   0.00000000    
   0.00000000    
   0.00000000    
   0.00000000    
   0.00000000    
   0.00000000    
   0.00000000    
   0.00000000    
   0.00000000    
   0.00000000    
   0.00000000    
   0.00000000    
   0.00000000    
   0.00000000    
   0.00000000    
   0.00000000    
   5.00370339E-02
  0.196998075    
  0.108384475    
   6.31703436E-02
  0.141248241    
  0.119274057    
   1.88095123E-02
   2.81438529E-02
   2.35596113E-02
   2.19878312E-02
   1.12890126E-02
   0.00000000    
   0.00000000    
   0.00000000    
   0.00000000    
   0.00000000    
   0.00000000    
   0.00000000    
   0.00000000    
   0.00000000    
   0.00000000    
   0.00000000    
   0.00000000    
   0.00000000    
   0.00000000    
   0.00000000    
   0.00000000    