# vtk DataFile Version 2.0
poten
ASCII
DATASET STRUCTURED_GRID 
DIMENSIONS   41    11    11
POINTS     4961 float
   0.0000000000000000            0.0000000000000000            0.0000000000000000     
   0.0000000000000000            0.0000000000000000           0.50000000000000000     
   0.0000000000000000            0.0000000000000000            1.0000000000000000     
   0.0000000000000000            0.0000000000000000            1.5000000000000000     
   0.0000000000000000            0.0000000000000000            2.0000000000000000     
   0.0000000000000000            0.0000000000000000            2.5000000000000000     
   0.0000000000000000            0.0000000000000000            3.0000000000000000     
   0.0000000000000000            0.0000000000000000            3.5000000000000000     
   0.0000000000000000            0.0000000000000000            4.0000000000000000     
   0.0000000000000000            0.0000000000000000            4.5000000000000000     
   0.0000000000000000            0.0000000000000000            5.0000000000000000     
   0.0000000000000000            0.0000000000000000            5.5000000000000000     
   0.0000000000000000            0.0000000000000000            6.0000000000000000     
   0.0000000000000000            0.0000000000000000            6.5000000000000000     
   0.0000000000000000            0.0000000000000000            7.0000000000000000     
   0.0000000000000000            0.0000000000000000            7.5000000000000000     
   0.0000000000000000            0.0000000000000000            8.0000000000000000     
   0.0000000000000000            0.0000000000000000            8.5000000000000000     
   0.0000000000000000            0.0000000000000000            9.0000000000000000     
   0.0000000000000000            0.0000000000000000            9.5000000000000000     
   0.0000000000000000            0.0000000000000000            10.000000000000000     
   0.0000000000000000            0.0000000000000000            10.500000000000000     
   0.0000000000000000            0.0000000000000000            11.000000000000000     
   0.0000000000000000            0.0000000000000000            11.500000000000000     
   0.0000000000000000            0.0000000000000000            12.000000000000000     
   0.0000000000000000            0.0000000000000000            12.500000000000000     
   0.0000000000000000            0.0000000000000000            13.000000000000000     
   0.0000000000000000            0.0000000000000000            13.500000000000000     
   0.0000000000000000            0.0000000000000000            14.000000000000000     
   0.0000000000000000            0.0000000000000000            14.500000000000000     
   0.0000000000000000            0.0000000000000000            15.000000000000000     
   0.0000000000000000            0.0000000000000000            15.500000000000000     
   0.0000000000000000            0.0000000000000000            16.000000000000000     
   0.0000000000000000            0.0000000000000000            16.500000000000000     
   0.0000000000000000            0.0000000000000000            17.000000000000000     
   0.0000000000000000            0.0000000000000000            17.500000000000000     
   0.0000000000000000            0.0000000000000000            18.000000000000000     
   0.0000000000000000            0.0000000000000000            18.500000000000000     
   0.0000000000000000            0.0000000000000000            19.000000000000000     
   0.0000000000000000            0.0000000000000000            19.500000000000000     
   0.0000000000000000            0.0000000000000000            20.000000000000000     
   0.0000000000000000           0.50000000000000000            0.0000000000000000     
   0.0000000000000000           0.50000000000000000           0.50000000000000000     
   0.0000000000000000           0.50000000000000000            1.0000000000000000     
   0.0000000000000000           0.50000000000000000            1.5000000000000000     
   0.0000000000000000           0.50000000000000000            2.0000000000000000     
   0.0000000000000000           0.50000000000000000            2.5000000000000000     
   0.0000000000000000           0.50000000000000000            3.0000000000000000     
   0.0000000000000000           0.50000000000000000            3.5000000000000000     
   0.0000000000000000           0.50000000000000000            4.0000000000000000     
   0.0000000000000000           0.50000000000000000            4.5000000000000000     
   0.0000000000000000           0.50000000000000000            5.0000000000000000     
   0.0000000000000000           0.50000000000000000            5.5000000000000000     
   0.0000000000000000           0.50000000000000000            6.0000000000000000     
   0.0000000000000000           0.50000000000000000            6.5000000000000000     
   0.0000000000000000           0.50000000000000000            7.0000000000000000     
   0.0000000000000000           0.50000000000000000            7.5000000000000000     
   0.0000000000000000           0.50000000000000000            8.0000000000000000     
   0.0000000000000000           0.50000000000000000            8.5000000000000000     
   0.0000000000000000           0.50000000000000000            9.0000000000000000     
   0.0000000000000000           0.50000000000000000            9.5000000000000000     
   0.0000000000000000           0.50000000000000000            10.000000000000000     
   0.0000000000000000           0.50000000000000000            10.500000000000000     
   0.0000000000000000           0.50000000000000000            11.000000000000000     
   0.0000000000000000           0.50000000000000000            11.500000000000000     
   0.0000000000000000           0.50000000000000000            12.000000000000000     
   0.0000000000000000           0.50000000000000000            12.500000000000000     
   0.0000000000000000           0.50000000000000000            13.000000000000000     
   0.0000000000000000           0.50000000000000000            13.500000000000000     
   0.0000000000000000           0.50000000000000000            14.000000000000000     
   0.0000000000000000           0.50000000000000000            14.500000000000000     
   0.0000000000000000           0.50000000000000000            15.000000000000000     
   0.0000000000000000           0.50000000000000000            15.500000000000000     
   0.0000000000000000           0.50000000000000000            16.000000000000000     
   0.0000000000000000           0.50000000000000000            16.500000000000000     
   0.0000000000000000           0.50000000000000000            17.000000000000000     
   0.0000000000000000           0.50000000000000000            17.500000000000000     
   0.0000000000000000           0.50000000000000000            18.000000000000000     
   0.0000000000000000           0.50000000000000000            18.500000000000000     
   0.0000000000000000           0.50000000000000000            19.000000000000000     
   0.0000000000000000           0.50000000000000000            19.500000000000000     
   0.0000000000000000           0.50000000000000000            20.000000000000000     
   0.0000000000000000            1.0000000000000000            0.0000000000000000     
   0.0000000000000000            1.0000000000000000           0.50000000000000000     
   0.0000000000000000            1.0000000000000000            1.0000000000000000     
   0.0000000000000000            1.0000000000000000            1.5000000000000000     
   0.0000000000000000            1.0000000000000000            2.0000000000000000     
   0.0000000000000000            1.0000000000000000            2.5000000000000000     
   0.0000000000000000            1.0000000000000000            3.0000000000000000     
   0.0000000000000000            1.0000000000000000            3.5000000000000000     
   0.0000000000000000            1.0000000000000000            4.0000000000000000     
   0.0000000000000000            1.0000000000000000            4.5000000000000000     
   0.0000000000000000            1.0000000000000000            5.0000000000000000     
   0.0000000000000000            1.0000000000000000            5.5000000000000000     
   0.0000000000000000            1.0000000000000000            6.0000000000000000     
   0.0000000000000000            1.0000000000000000            6.5000000000000000     
   0.0000000000000000            1.0000000000000000            7.0000000000000000     
   0.0000000000000000            1.0000000000000000            7.5000000000000000     
   0.0000000000000000            1.0000000000000000            8.0000000000000000     
   0.0000000000000000            1.0000000000000000            8.5000000000000000     
   0.0000000000000000            1.0000000000000000            9.0000000000000000     
   0.0000000000000000            1.0000000000000000            9.5000000000000000     
   0.0000000000000000            1.0000000000000000            10.000000000000000     
   0.0000000000000000            1.0000000000000000            10.500000000000000     
   0.0000000000000000            1.0000000000000000            11.000000000000000     
   0.0000000000000000            1.0000000000000000            11.500000000000000     
   0.0000000000000000            1.0000000000000000            12.000000000000000     
   0.0000000000000000            1.0000000000000000            12.500000000000000     
   0.0000000000000000            1.0000000000000000            13.000000000000000     
   0.0000000000000000            1.0000000000000000            13.500000000000000     
   0.0000000000000000            1.0000000000000000            14.000000000000000     
   0.0000000000000000            1.0000000000000000            14.500000000000000     
   0.0000000000000000            1.0000000000000000            15.000000000000000     
[...]
CELL_DATA     4000
SCALARS poten float 1
LOOKUP_TABLE default
  0.184498370    
  0.218394235    
  -4.15673815E-02
  -2.42496878E-02
   3.41150984E-02
   8.05373862E-02
 -0.113234229    
  -2.14049798E-02
  -3.74781117E-02
  -4.50915247E-02
   9.55820754E-02
   5.11258803E-02
   2.43926118E-03
  -9.86091211E-04
  -5.86133276E-04
  -2.44434865E-04
  -9.45095380E-05
  -3.58012949E-05
  -1.34866350E-05
  -5.07368941E-06
  -1.90837204E-06
  -7.17903220E-07
  -2.70079767E-07
  -1.01540884E-07
  -3.81139706E-08
  -1.42544430E-08
  -5.31902833E-09
  -2.06200501E-09
  -9.25004628E-10
  -4.77704432E-10
  -1.82280441E-10
   4.87812568E-11
   1.16154752E-10
   8.98684859E-12
  -1.12935161E-10
  -1.08444545E-10
  -7.77167393E-12
   7.09478171E-11
   7.47728060E-11
   3.78668763E-11
  0.358394504    
  0.253869474    
  0.142290071    
  -6.24471391E-03
  -2.27185572E-03
   6.20694309E-02
 -0.128667176    
  -4.32058387E-02
  -5.71137667E-02
  -4.45198119E-02
  -3.09248455E-02
  -4.50133607E-02
  -1.29144220E-02
  -4.59267572E-03
  -1.72589172E-03
  -6.53607538E-04
  -2.47158576E-04
  -9.32682233E-05
  -3.51480267E-05
  -1.32353925E-05
  -4.98198642E-06
  -1.87497642E-06
  -7.05565128E-07
  -2.65465275E-07
  -9.98696734E-08
  -3.75620530E-08
  -1.41590881E-08
  -5.40022249E-09
  -2.08216733E-09
  -7.94067145E-10
  -2.86022067E-10
  -6.23686727E-11
   1.55755166E-11
  -3.16221042E-11
  -1.04165322E-10
  -8.79397180E-11
   4.26840291E-12
   7.54994886E-11
   7.75067510E-11
   3.99437983E-11
  0.619172454    
  0.404785305    
  0.271486253    
  0.142658770    
  0.120218173    
   7.86342472E-03
 -0.127527624    
  -3.37741412E-02
  -8.41990337E-02
 -0.188791156    
  -5.91183566E-02
  -3.88346687E-02
  -1.55754313E-02
  -5.86216571E-03
  -2.19180714E-03
  -8.20989895E-04
  -3.08120972E-04
  -1.15775620E-04
  -4.35300681E-05
  -1.63721870E-05
  -6.15887302E-06
  -2.31708350E-06
  -8.71777672E-07
  -3.28035270E-07
  -1.23489372E-07
  -4.65317527E-08
  -1.76049078E-08
  -6.69872557E-09
  -2.46977039E-09
  -8.23973390E-10
  -2.77972534E-10
  -1.23539387E-10
  -6.37041808E-11
  -6.75213774E-11
  -9.71617370E-11
  -6.94721711E-11
   1.44029354E-11
   7.73497238E-11
   7.79297876E-11
   4.11442408E-11
  0.546309292    
  0.324839890    
  0.122664161    
   8.59832112E-03
   6.37898222E-02
  -3.46711390E-02
 -0.182534084    
   1.74298026E-02
  -7.18662366E-02
  -7.68482089E-02
  -9.28306803E-02
  -6.55727461E-02
  -1.69578232E-02
  -5.38697653E-03
  -1.88151875E-03
  -6.83937920E-04
  -2.53007689E-04
  -9.43723935E-05
  -3.53472569E-05
  -1.32678115E-05
  -4.98579539E-06
  -1.87465946E-06
  -7.05078548E-07
  -2.65305715E-07
  -9.99573970E-08
  -3.77486700E-08
  -1.43315164E-08
  -5.44703838E-09
  -1.93510763E-09
  -5.59191082E-10
  -1.65642305E-10
  -1.15219216E-10
  -9.38831513E-11
  -8.45293280E-11
  -9.21333496E-11
  -5.85862886E-11
   1.83734764E-11
   7.51722226E-11
   7.63353963E-11
   4.18883261E-11
  0.183457926    
  0.219095275    
  -4.05478999E-02
  -2.55155191E-02
   3.43831591E-02
   8.05582479E-02
 -0.113308094    
  -2.14882251E-02
  -3.76121439E-02
  -4.47969325E-02
   9.59491059E-02
   5.13365604E-02
   2.48670718E-03
  -9.73432383E-04
  -5.82246576E-04
  -2.43124712E-04
  -9.40436221E-05
  -3.56307974E-05
  -1.34232696E-05
  -5.05000480E-06
  -1.89949969E-06
  -7.14496650E-07
  -2.68784390E-07
  -1.01197905E-07
  -3.82162781E-08
  -1.45300953E-08
  -5.59736302E-09
  -2.13914286E-09
  -6.75429546E-10
  -8.88382215E-11
   7.04093121E-12
  -4.77971135E-11
  -6.56481119E-11
  -7.25888724E-11
  -8.67126718E-11
  -5.79423558E-11
   1.34438129E-11
   6.75840148E-11
   7.13415854E-11
   4.06999469E-11
 -0.184498370    
 -0.218394235    
   4.15673777E-02
   2.42496859E-02
  -3.41150947E-02
  -8.05373788E-02
  0.113234214    
   2.14049779E-02
   3.74781191E-02
   4.50915247E-02
  -9.55820680E-02
  -5.11258803E-02
  -2.43926141E-03
   9.86091094E-04
   5.86133101E-04
   2.44434690E-04
   9.45095671E-05
   3.58014004E-05
   1.34867651E-05
   5.07383493E-06
   1.90845094E-06
   7.17886905E-07
   2.70030313E-07
   1.01527988E-07
   3.81129830E-08
   1.42338248E-08
   5.26069588E-09
   1.96354955E-09
   8.28607627E-10
   4.08892947E-10
   1.75001902E-10
   5.44707647E-11
   1.35066854E-11
  -3.41452040E-11
  -8.36028191E-11
  -6.89706833E-11
   1.23999368E-12
   5.70033153E-11
   6.31594707E-11
   3.62819566E-11
 -0.358394504    
 -0.253869474    
 -0.142290071    
   6.24472089E-03
   2.27185758E-03
  -6.20694235E-02
  0.128667176    
   4.32058461E-02
   5.71137741E-02
   4.45198230E-02
   3.09248362E-02
   4.50133607E-02
   1.29144210E-02
   4.59267572E-03
   1.72589149E-03
   6.53607422E-04
   2.47158634E-04
   9.32683542E-05
   3.51481904E-05
   1.32356136E-05
   4.98208192E-06
   1.87489456E-06
   7.05461616E-07
   2.65423949E-07
   9.98591290E-08
   3.75514873E-08
   1.40998582E-08
   5.29319832E-09
   1.99556327E-09
   7.39922179E-10
   2.77548040E-10
   1.58282762E-10
   1.15117388E-10
   1.36528913E-11
  -8.72024397E-11
  -8.89273308E-11
  -1.31257245E-11
   4.87783772E-11
   5.60824304E-11
   3.09265911E-11
 -0.619172454    
 -0.404785305    
 -0.271486282    
 -0.142658770    
 -0.120218180    
  -7.86342286E-03
  0.127527624    
   3.37741375E-02
   8.41990262E-02
  0.188791156    
   5.91183528E-02
   3.88346687E-02
   1.55754322E-02
   5.86216571E-03
   2.19180714E-03
   8.20989779E-04
   3.08121002E-04
   1.15775772E-04
   4.35302354E-05
   1.63723889E-05
   6.15897943E-06
   2.31701392E-06
   8.71669613E-07
   3.27987891E-07
   1.23485364E-07
   4.65269459E-08
   1.75335551E-08
   6.57528121E-09
   2.37963160E-09
   7.75348119E-10
   2.76205003E-10
   2.25505545E-10
   1.97903860E-10
   4.87091478E-11
  -9.75139691E-11
  -1.09675921E-10
  -2.33703421E-11
   4.73962536E-11
   5.50834725E-11
   2.86377172E-11
 -0.546309292    
 -0.324839860    
 -0.122664168    
  -8.59833043E-03
  -6.37898222E-02
   3.46711352E-02
  0.182534084    
  -1.74297970E-02
   7.18662441E-02
   7.68482089E-02
   9.28306803E-02
   6.55727461E-02
   1.69578232E-02
   5.38697653E-03
   1.88151863E-03
   6.83937746E-04
   2.53007718E-04
   9.43725245E-05
   3.53474170E-05
   1.32679688E-05
   4.98587042E-06
   1.87463479E-06
   7.05042567E-07
   2.65311741E-07
   9.99618024E-08
   3.77183795E-08
   1.42492587E-08
   5.32836886E-09
   1.83656756E-09
   4.98362906E-10
   1.67722669E-10
   2.27986657E-10
   2.29676722E-10
   5.83761581E-11
  -1.09782294E-10
  -1.22718613E-10
  -2.51683188E-11
   5.35905868E-11
   6.07224271E-11
   3.05168286E-11
 -0.183457926    
 -0.219095275    
   4.05478999E-02
   2.55155172E-02
  -3.43831591E-02
  -8.05582553E-02
  0.113308087    
   2.14882232E-02
   3.76121476E-02
   4.47969362E-02
  -9.59491059E-02
  -5.13365604E-02
  -2.48670718E-03
   9.73432208E-04
   5.82246401E-04
   2.43124538E-04
   9.40436366E-05
   3.56308519E-05
   1.34233442E-05
   5.05015441E-06
   1.89960588E-06
   7.14506996E-07
   2.68769355E-07
   1.01212564E-07
   3.82201186E-08
   1.44972780E-08
   5.52766766E-09
   2.03417128E-09
   5.70879677E-10
   1.54991974E-11
  -7.72875080E-12
   1.61612973E-10
   1.98526195E-10
   4.23763871E-11
  -1.16370684E-10
  -1.22252125E-10
  -1.87164693E-11
   6.31527400E-11
   6.87521776E-11
   3.44091908E-11
  0.547145545    
  0.323456317    
  0.120518312    
   6.53499737E-03
   6.37524277E-02
  -3.46665569E-02
 -0.182692930    
   1.74223389E-02
  -7.19026625E-02
  -7.71394596E-02
  -9.32846144E-02
  -6.57039881E-02
  -1.70089509E-02
  -5.40582417E-03
  -1.88844430E-03
  -6.86500047E-04
  -2.53961800E-04
  -9.47295193E-05
  -3.54813928E-05
  -1.33181929E-05
  -5.00471970E-06
  -1.88181605E-06
  -7.07759000E-07
  -2.66161265E-07
  -1.00028743E-07
  -3.75258722E-08
  -1.40583385E-08
  -5.34315037E-09
  -2.17557328E-09
  -9.92263050E-10
  -4.16480544E-10
  -4.90271365E-11
   8.93395427E-11
   6.54958639E-12
  -1.10936892E-10
  -1.01468639E-10
   6.23578923E-12
   8.88598223E-11
   9.11915959E-11
   4.76943138E-11
   1.21204710    
  0.513916194    
  -1.02194482E-02
   9.98841599E-02
  0.161242977    
  0.113928713    
 -0.143636361    
 -0.188542694    
 -0.341073424    
 -0.266851753    
 -0.292054534    
 -0.100857481    
  -3.52357924E-02
  -1.27113899E-02
  -4.68480866E-03
  -1.74586149E-03
  -6.54034549E-04
  -2.45598523E-04
  -9.23245607E-05
  -3.47231326E-05
  -1.30622284E-05
  -4.91430183E-06
  -1.84892144E-06
  -6.95606730E-07
  -2.61668418E-07
  -9.83961428E-08
  -3.70258846E-08
  -1.40004435E-08
  -5.35271782E-09
  -2.09746309E-09
  -8.32889591E-10
  -2.73091855E-10
  -4.37865369E-11
  -4.38797887E-11
  -1.08357455E-10
  -8.30177732E-11
   2.30429530E-11
   1.01909925E-10
   9.97772212E-11
   5.11572590E-11
   1.90793467    
  0.881418347    
   9.40069482E-02
  0.151445284    
  0.313882113    
  0.178930417    
  -3.96733545E-02
 -0.105434105    
 -0.386434793    
 -0.362773180    
 -0.222990051    
  -9.71768126E-02
  -3.87060083E-02
  -1.48853967E-02
  -5.64899575E-03
  -2.13299482E-03
  -8.03800765E-04
  -3.02656234E-04
  -1.13917784E-04
  -4.28703206E-05
  -1.61317876E-05
  -6.06999902E-06
  -2.28392537E-06
  -8.59360398E-07
  -3.23355920E-07
  -1.21684735E-07
  -4.58670932E-08
  -1.73400423E-08
  -6.51199850E-09
  -2.41410292E-09
  -9.26607513E-10
  -3.68024694E-10
  -1.34156852E-10
  -8.45471679E-11
  -1.05161407E-10
  -6.83428800E-11
   3.03941837E-11
   1.01881198E-10
   9.76179276E-11
   4.96696538E-11
   1.21090114    
  0.514638484    
  -8.90140701E-03
  0.100509323    
  0.160922587    
  0.113721766    
 -0.143413827    
 -0.188266948    
 -0.340876669    
 -0.266561627    
 -0.291901141    
 -0.100784458    
  -3.52037475E-02
  -1.26983579E-02
  -4.67971945E-03
  -1.74391305E-03
  -6.53295487E-04
  -2.45319214E-04
  -9.22191684E-05
  -3.46834786E-05
  -1.30473127E-05
  -4.90864431E-06
  -1.84678527E-06
  -6.94891014E-07
  -2.61556892E-07
  -9.85229249E-08
  -3.72020033E-08
  -1.40670213E-08
  -5.20212140E-09
  -1.82589144E-09
  -6.68079148E-10
  -3.01129649E-10
  -1.48919793E-10
  -9.93480367E-11
  -1.00289201E-10
  -6.14816462E-11
   2.52297627E-11
   8.81066192E-11
   8.58602980E-11
   4.46267120E-11
  0.358382583    
  0.255017608    
  0.142475247    
  -6.69993646E-03
  -2.59977509E-03
   6.16343357E-02
 -0.128706023    
  -4.32140492E-02
  -5.69280535E-02
  -4.43275273E-02
  -3.08413263E-02
  -4.49612662E-02
  -1.28887100E-02
  -4.58247820E-03
  -1.72203849E-03
  -6.52165676E-04
  -2.46619078E-04
  -9.30659298E-05
  -3.50720184E-05
  -1.32068762E-05
  -4.97127712E-06
  -1.87085766E-06
  -7.03983346E-07
  -2.64959596E-07
  -9.98326115E-08
  -3.77219216E-08
  -1.43443488E-08
  -5.44465140E-09
  -1.91732785E-09
  -5.46809487E-10
  -1.57355462E-10
  -1.04901546E-10
  -8.43075471E-11
  -7.89003377E-11
  -9.13935316E-11
  -6.36694933E-11
   8.32512011E-12
   6.36801584E-11
   6.69396830E-11
   3.66515290E-11
 -0.547145545    
 -0.323456347    
 -0.120518304    
  -6.53501088E-03
  -6.37524277E-02
   3.46665606E-02
  0.182692930    
  -1.74223352E-02
   7.19026551E-02
   7.71394521E-02
   9.32846069E-02
   6.57039881E-02
   1.70089509E-02
   5.40582417E-03
   1.88844407E-03
   6.86499930E-04
   2.53961887E-04
   9.47296139E-05
   3.54815129E-05
   1.33183303E-05
   5.00476744E-06
   1.88179820E-06
   7.07745585E-07
   2.66169280E-07
   1.00023321E-07
   3.74898477E-08
   1.39774770E-08
   5.23058930E-09
   2.08647521E-09
   9.38000455E-10
   4.12609585E-10
   1.46614040E-10
   3.72052424E-11
  -2.91476530E-11
  -8.20213619E-11
  -7.49941984E-11
  -1.43138435E-11
   3.72972105E-11
   4.64980589E-11
   2.72004901E-11
  -1.21204710    
 -0.513916194    
   1.02194445E-02
  -9.98841599E-02
 -0.161242962    
 -0.113928713    
  0.143636361    
  0.188542694    
  0.341073424    
  0.266851753    
  0.292054534    
  0.100857474    
   3.52357924E-02
   1.27113899E-02
   4.68480820E-03
   1.74586137E-03
   6.54034608E-04
   2.45598640E-04
   9.23247135E-05
   3.47233581E-05
   1.30623248E-05
   4.91424635E-06
   1.84885198E-06
   6.95567337E-07
   2.61641503E-07
   9.83692914E-08
   3.69476076E-08
   1.38826000E-08
   5.27438582E-09
   2.05708095E-09
   8.27327318E-10
   3.63491737E-10
   1.71347603E-10
   2.82730922E-11
  -7.93802940E-11
  -9.27016866E-11
  -3.34209396E-11
   2.04602498E-11
   3.35259633E-11
   2.04925105E-11
  -1.90793467    
 -0.881418347    
  -9.40069556E-02
 -0.151445284    
 -0.313882113    
 -0.178930432    
   3.96733396E-02
  0.105434097    
  0.386434793    
  0.362773180    
  0.222990051    
   9.71768126E-02
   3.87060083E-02
   1.48853967E-02
   5.64899528E-03
   2.13299482E-03
   8.03800824E-04
   3.02656321E-04
   1.13917886E-04
   4.28705316E-05
   1.61319458E-05
   6.06997173E-06
   2.28383965E-06
   8.59306283E-07
   3.23332245E-07
   1.21663220E-07
   4.57771456E-08
   1.72057373E-08
   6.43092468E-09
   2.38070119E-09
   9.28316146E-10
   4.64186328E-10
   2.64921390E-10
   6.78756565E-11
  -8.61975630E-11
  -1.09845709E-10
  -4.07591148E-11
   2.11816068E-11
   3.51886957E-11
   2.08527414E-11
  -1.21090114    
 -0.514638484    
   8.90139863E-03
 -0.100509323    
 -0.160922602    
 -0.113721788    
  0.143413827    
  0.188266948    
  0.340876669    
  0.266561627    
  0.291901141    
  0.100784458    
   3.52037475E-02
   1.26983579E-02
   4.67971945E-03
   1.74391293E-03
   6.53295428E-04
   2.45319301E-04
   9.22192849E-05
   3.46836641E-05
   1.30474318E-05
   4.90864568E-06
   1.84676242E-06
   6.94889422E-07
   2.61550042E-07
   9.84850672E-08
   3.71004703E-08
   1.39317020E-08
   5.11095832E-09
   1.78228443E-09
   6.74852563E-10
   4.07858303E-10
   2.81049434E-10
   7.53293330E-11
  -9.85581963E-11
  -1.19142418E-10
  -3.33512939E-11
   3.92278154E-11
   5.10853755E-11
   2.84673864E-11
 -0.358382583    
 -0.255017608    
 -0.142475247    
   6.69992808E-03
   2.59977207E-03
  -6.16343357E-02
  0.128706038    
   4.32140529E-02
   5.69280535E-02
   4.43275161E-02
   3.08413189E-02
   4.49612625E-02
   1.28887091E-02
   4.58247820E-03
   1.72203826E-03
   6.52165501E-04
   2.46619078E-04
   9.30659880E-05
   3.50721093E-05
   1.32070109E-05
   4.97134897E-06
   1.87087096E-06
   7.03998921E-07
   2.64988643E-07
   9.98360292E-08
   3.76801417E-08
   1.42509435E-08
   5.32127320E-09
   1.81976101E-09
   4.90331775E-10
   1.61197986E-10
   2.12744447E-10
   2.13718737E-10
   5.10679624E-11
  -1.08451824E-10
  -1.15835057E-10
  -1.50110063E-11
   6.55477617E-11
   7.30143029E-11
   3.91487467E-11
  0.620279014    
  0.405019909    
  0.271664739    
  0.141123801    
  0.119995363    
   7.64010055E-03
 -0.127649859    
  -3.41219567E-02
  -8.44228715E-02
 -0.189300001    
  -5.95473014E-02
  -3.89833190E-02
  -1.56298801E-02
  -5.88250067E-03
  -2.19944841E-03
  -8.23865936E-04
  -3.09203780E-04
  -1.16183444E-04
  -4.36836817E-05
  -1.64300109E-05
  -6.18064769E-06
  -2.32524121E-06
  -8.74780653E-07
  -3.29067802E-07
  -1.23728071E-07
  -4.64544954E-08
  -1.74264105E-08
  -6.60014887E-09
  -2.61886091E-09
  -1.14388776E-09
  -4.90839369E-10
  -1.06447122E-10
   5.14313453E-11
  -6.62263213E-12
  -1.06293342E-10
  -8.99641195E-11
   1.74022238E-11
   9.85868262E-11
   1.00485911E-10
   5.43158608E-11
   1.90873373    
  0.882325470    
   9.44536775E-02
  0.151251346    
  0.314058870    
  0.178761661    
  -4.01460342E-02
 -0.105674706    
 -0.386675984    
 -0.363016248    
 -0.223138392    
  -9.72444415E-02
  -3.87345441E-02
  -1.48968901E-02
  -5.65349497E-03
  -2.13472662E-03
  -8.04460724E-04
  -3.02906381E-04
  -1.14012284E-04
  -4.29059546E-05
  -1.61452426E-05
  -6.07504762E-06
  -2.28578983E-06
  -8.60010516E-07
  -3.23508658E-07
  -1.21637981E-07
  -4.57545752E-08
  -1.72722210E-08
  -6.59819666E-09
  -2.61179300E-09
  -1.06159193E-09
  -3.59710872E-10
  -6.29432340E-11
  -4.59866763E-11
  -1.10125020E-10
  -8.07779399E-11
   3.21514516E-11
   1.14618370E-10
   1.10870188E-10
   5.71925389E-11
   2.32099128    
  0.744001269    
  -4.22923490E-02
   3.12292902E-03
  -5.06923348E-02
  -7.49857649E-02
  0.256323159    
  0.320747703    
 -0.288745999    
 -0.269346714    
 -0.238623872    
 -0.107173443    
  -4.46147509E-02
  -1.77056938E-02
  -6.84487401E-03
  -2.61046505E-03
  -9.88784363E-04
  -3.73263523E-04
  -1.40671793E-04
  -5.29715544E-05
  -1.99389542E-05
  -7.50366598E-06
  -2.82355359E-06
  -1.06242317E-06
  -3.99717834E-07
  -1.50358701E-07
  -5.66163365E-08
  -2.13776996E-08
  -8.08633693E-09
  -3.09398152E-09
  -1.22053212E-09
  -4.50601112E-10
  -1.28521666E-10
  -7.59695779E-11
  -1.13054448E-10
  -7.62064092E-11
   3.40268959E-11
   1.12999977E-10
   1.06858522E-10
   5.33197757E-11
   1.90701663    
  0.881352067    
   9.60031524E-02
  0.151996508    
  0.313551873    
  0.178953394    
  -3.94206084E-02
 -0.105393305    
 -0.386489570    
 -0.362690836    
 -0.222941115    
  -9.71552730E-02
  -3.86965163E-02
  -1.48813566E-02
  -5.64734591E-03
  -2.13234220E-03
  -8.03547853E-04
  -3.02559405E-04
  -1.13880946E-04
  -4.28564163E-05
  -1.61266016E-05
  -6.06801177E-06
  -2.28313297E-06
  -8.59066120E-07
  -3.23265738E-07
  -1.21670013E-07
  -4.58673526E-08
  -1.73325176E-08
  -6.50648779E-09
  -2.41124343E-09
  -9.13335907E-10
  -3.47409712E-10
  -1.21239033E-10
  -8.44519246E-11
  -1.12064226E-10
  -7.65709440E-11
   2.22950217E-11
   9.37918632E-11
   9.01242345E-11
   4.47886242E-11
  0.618252754    
  0.404556185    
  0.272924453    
  0.142803088    
  0.120003261    
   7.65348366E-03
 -0.127328753    
  -3.40510346E-02
  -8.42778906E-02
 -0.188649073    
  -5.90822883E-02
  -3.88089530E-02
  -1.55613618E-02
  -5.85574564E-03
  -2.18913448E-03
  -8.19928595E-04
  -3.07709910E-04
  -1.15618539E-04
  -4.34704234E-05
  -1.63496807E-05
  -6.15043609E-06
  -2.31386252E-06
  -8.70525071E-07
  -3.27567506E-07
  -1.23329784E-07
  -4.65012135E-08
  -1.76109065E-08
  -6.69092426E-09
  -2.45740028E-09
  -8.15227164E-10
  -2.58863292E-10
  -9.61427674E-11
  -4.51979669E-11
  -6.42227244E-11
  -1.03592031E-10
  -8.06005748E-11
   3.36753303E-13
   6.23265120E-11
   6.49648946E-11
   3.34313584E-11
 -0.620279014    
 -0.405019909    
 -0.271664739    
 -0.141123801    
 -0.119995371    
  -7.64010707E-03
  0.127649859    
   3.41219679E-02
   8.44228789E-02
  0.189300016    
   5.95472977E-02
   3.89833190E-02
   1.56298801E-02
   5.88250067E-03
   2.19944818E-03
   8.23865819E-04
   3.09203810E-04
   1.16183524E-04
   4.36838454E-05
   1.64301709E-05
   6.18067543E-06
   2.32523166E-06
   8.74794523E-07
   3.29071838E-07
   1.23716362E-07
   4.64367353E-08
   1.73574186E-08
   6.47633636E-09
   2.51721177E-09
   1.09156950E-09
   4.94906061E-10
   2.06384979E-10
   7.13733170E-11
  -2.12279465E-11
  -9.02067171E-11
  -8.73014924E-11
  -2.42812506E-11
   2.96871243E-11
   3.95997679E-11
   2.23091649E-11
  -1.90873373    
 -0.882325470    
  -9.44536850E-02
 -0.151251361    
 -0.314058870    
 -0.178761661    
   4.01460305E-02
  0.105674699    
  0.386675984    
  0.363016248    
  0.223138392    
   9.72444415E-02
   3.87345441E-02
   1.48968901E-02
   5.65349497E-03
   2.13472662E-03
   8.04460724E-04
   3.02906497E-04
   1.14012437E-04
   4.29061656E-05
   1.61453481E-05
   6.07503989E-06
   2.28575823E-06
   8.59966519E-07
   3.23471880E-07
   1.21616253E-07
   4.56778793E-08
   1.71463128E-08
   6.51482601E-09
   2.57565236E-09
   1.06228082E-09
   4.50923909E-10
   1.86524990E-10
   2.54304477E-11
  -8.09684542E-11
  -9.57743537E-11
  -4.14077383E-11
   9.86766571E-12
   2.49073557E-11
   1.62700443E-11
  -2.32099128    
 -0.744001210    
   4.22923453E-02
  -3.12293484E-03
   5.06923310E-02
   7.49857575E-02
 -0.256323189    
 -0.320747703    
  0.288745999    
  0.269346714    
  0.238623872    
  0.107173450    
   4.46147546E-02
   1.77056938E-02
   6.84487401E-03
   2.61046505E-03
   9.88784363E-04
   3.73263552E-04
   1.40671895E-04
   5.29717727E-05
   1.99391143E-05
   7.50369645E-06
   2.82353903E-06
   1.06238133E-06
   3.99668750E-07
   1.50319025E-07
   5.65220795E-08