# vtk DataFile Version 2.0
poten
ASCII
DATASET STRUCTURED_GRID 
DIMENSIONS   51    26    26
POINTS    34476 float
   0.0000000000000000            0.0000000000000000            0.0000000000000000     
   0.0000000000000000            0.0000000000000000           0.50000000000000000     
   0.0000000000000000            0.0000000000000000            1.0000000000000000     
   0.0000000000000000            0.0000000000000000            1.5000000000000000     
   0.0000000000000000            0.0000000000000000            2.0000000000000000     
   0.0000000000000000            0.0000000000000000            2.5000000000000000     
   0.0000000000000000            0.0000000000000000            3.0000000000000000     
   0.0000000000000000            0.0000000000000000            3.5000000000000000     
   0.0000000000000000            0.0000000000000000            4.0000000000000000     
   0.0000000000000000            0.0000000000000000            4.5000000000000000     
   0.0000000000000000            0.0000000000000000            5.0000000000000000     
   0.0000000000000000            0.0000000000000000            5.5000000000000000     
   0.0000000000000000            0.0000000000000000            6.0000000000000000     
   0.0000000000000000            0.0000000000000000            6.5000000000000000     
   0.0000000000000000            0.0000000000000000            7.0000000000000000     
   0.0000000000000000            0.0000000000000000            7.5000000000000000     
   0.0000000000000000            0.0000000000000000            8.0000000000000000     
   0.0000000000000000            0.0000000000000000            8.5000000000000000     
   0.0000000000000000            0.0000000000000000            9.0000000000000000     
   0.0000000000000000            0.0000000000000000            9.5000000000000000     
   0.0000000000000000            0.0000000000000000            10.000000000000000     
   0.0000000000000000            0.0000000000000000            10.500000000000000     
   0.0000000000000000            0.0000000000000000            11.000000000000000     
   0.0000000000000000            0.0000000000000000            11.500000000000000     
   0.0000000000000000            0.0000000000000000            12.000000000000000     
   0.0000000000000000            0.0000000000000000            12.500000000000000     
   0.0000000000000000            0.0000000000000000            13.000000000000000     
   0.0000000000000000            0.0000000000000000            13.500000000000000     
   0.0000000000000000            0.0000000000000000            14.000000000000000     
   0.0000000000000000            0.0000000000000000            14.500000000000000     
   0.0000000000000000            0.0000000000000000            15.000000000000000     
   0.0000000000000000            0.0000000000000000            15.500000000000000     
   0.0000000000000000            0.0000000000000000            16.000000000000000     
   0.0000000000000000            0.0000000000000000            16.500000000000000     
   0.0000000000000000            0.0000000000000000            17.000000000000000     
   0.0000000000000000            0.0000000000000000            17.500000000000000     
   0.0000000000000000            0.0000000000000000            18.000000000000000     
   0.0000000000000000            0.0000000000000000            18.500000000000000     
   0.0000000000000000            0.0000000000000000            19.000000000000000     
   0.0000000000000000            0.0000000000000000            19.500000000000000     
   0.0000000000000000            0.0000000000000000            20.000000000000000     
   0.0000000000000000            0.0000000000000000            20.500000000000000     
   0.0000000000000000            0.0000000000000000            21.000000000000000     
   0.0000000000000000            0.0000000000000000            21.500000000000000     
   0.0000000000000000            0.0000000000000000            22.000000000000000     
   0.0000000000000000            0.0000000000000000            22.500000000000000     
   0.0000000000000000            0.0000000000000000            23.000000000000000     
   0.0000000000000000            0.0000000000000000            23.500000000000000     
   0.0000000000000000            0.0000000000000000            24.000000000000000     
   0.0000000000000000            0.0000000000000000            24.500000000000000     
   0.0000000000000000            0.0000000000000000            25.000000000000000     
   0.0000000000000000           0.50000000000000000            0.0000000000000000     
   0.0000000000000000           0.50000000000000000           0.50000000000000000     
   0.0000000000000000           0.50000000000000000            1.0000000000000000     
   0.0000000000000000           0.50000000000000000            1.5000000000000000     
   0.0000000000000000           0.50000000000000000            2.0000000000000000     
   0.0000000000000000           0.50000000000000000            2.5000000000000000     
   0.0000000000000000           0.50000000000000000            3.0000000000000000     
   0.0000000000000000           0.50000000000000000            3.5000000000000000     
   0.0000000000000000           0.50000000000000000            4.0000000000000000     
   0.0000000000000000           0.50000000000000000            4.5000000000000000     
   0.0000000000000000           0.50000000000000000            5.0000000000000000     
   0.0000000000000000           0.50000000000000000            5.5000000000000000     
   0.0000000000000000           0.50000000000000000            6.0000000000000000     
   0.0000000000000000           0.50000000000000000            6.5000000000000000     
   0.0000000000000000           0.50000000000000000            7.0000000000000000     
   0.0000000000000000           0.50000000000000000            7.5000000000000000     
   0.0000000000000000           0.50000000000000000            8.0000000000000000     
   0.0000000000000000           0.50000000000000000            8.5000000000000000     
   0.0000000000000000           0.50000000000000000            9.0000000000000000     
   0.0000000000000000           0.50000000000000000            9.5000000000000000     
   0.0000000000000000           0.50000000000000000            10.000000000000000     
   0.0000000000000000           0.50000000000000000            10.500000000000000     
   0.0000000000000000           0.50000000000000000            11.000000000000000     
   0.0000000000000000           0.50000000000000000            11.500000000000000     
   0.0000000000000000           0.50000000000000000            12.000000000000000     
   0.0000000000000000           0.50000000000000000            12.500000000000000     
   0.0000000000000000           0.50000000000000000            13.000000000000000     
   0.0000000000000000           0.50000000000000000            13.500000000000000     
   0.0000000000000000           0.50000000000000000            14.000000000000000     
   0.0000000000000000           0.50000000000000000            14.500000000000000     
   0.0000000000000000           0.50000000000000000            15.000000000000000     
   0.0000000000000000           0.50000000000000000            15.500000000000000     
   0.0000000000000000           0.50000000000000000            16.000000000000000     
   0.0000000000000000           0.50000000000000000            16.500000000000000     
   0.0000000000000000           0.50000000000000000            17.000000000000000     
   0.0000000000000000           0.50000000000000000            17.500000000000000     
   0.0000000000000000           0.50000000000000000            18.000000000000000     
   0.0000000000000000           0.50000000000000000            18.500000000000000     
   0.0000000000000000           0.50000000000000000            19.000000000000000     
   0.0000000000000000           0.50000000000000000            19.500000000000000     
   0.0000000000000000           0.50000000000000000            20.000000000000000     
   0.0000000000000000           0.50000000000000000            20.500000000000000     
   0.0000000000000000           0.50000000000000000            21.000000000000000     
   0.0000000000000000           0.50000000000000000            21.500000000000000     
   0.0000000000000000           0.50000000000000000            22.000000000000000     
   0.0000000000000000           0.50000000000000000            22.500000000000000     
   0.0000000000000000           0.50000000000000000            23.000000000000000     
   0.0000000000000000           0.50000000000000000            23.500000000000000     
   0.0000000000000000           0.50000000000000000            24.000000000000000     
   0.0000000000000000           0.50000000000000000            24.500000000000000     
   0.0000000000000000           0.50000000000000000            25.000000000000000     
   0.0000000000000000            1.0000000000000000            0.0000000000000000     
   0.0000000000000000            1.0000000000000000           0.50000000000000000     
   0.0000000000000000            1.0000000000000000            1.0000000000000000     
   0.0000000000000000            1.0000000000000000            1.5000000000000000     
   0.0000000000000000            1.0000000000000000            2.0000000000000000     
   0.0000000000000000            1.0000000000000000            2.5000000000000000     
   0.0000000000000000            1.0000000000000000            3.0000000000000000     
   0.0000000000000000            1.0000000000000000            3.5000000000000000     
   0.0000000000000000            1.0000000000000000            4.0000000000000000     
   0.0000000000000000            1.0000000000000000            4.5000000000000000     
   0.0000000000000000            1.0000000000000000            5.0000000000000000     
[...]
CELL_DATA    31250
SCALARS poten float 1
LOOKUP_TABLE default
  -1.47700977    
  -1.53370106    
  -1.56417668    
  -1.59147251    
  -1.59410572    
  -1.61481941    
  -1.59894419    
  -1.53963792    
  -1.47464073    
  -1.40131378    
  -1.28692341    
  -1.07462871    
 -0.903998315    
 -0.749472022    
 -0.480660588    
 -0.285355210    
 -0.169617534    
 -0.101055779    
  -6.03087060E-02
  -3.60275544E-02
  -2.15343032E-02
  -1.28752273E-02
  -7.69920088E-03
  -4.60437499E-03
  -2.75368034E-03
  -1.64689322E-03
  -9.84965474E-04
  -5.89088071E-04
  -3.52324219E-04
  -2.10718630E-04
  -1.26025101E-04
  -7.53661807E-05
  -4.50648913E-05
  -2.69479278E-05
  -1.61203170E-05
  -9.64675837E-06
  -5.77296123E-06
  -3.45384910E-06
  -2.06547952E-06
  -1.23406119E-06
  -7.36165475E-07
  -4.38257160E-07
  -2.59753676E-07
  -1.52702654E-07
  -8.96692285E-08
  -5.39964518E-08
  -3.39290480E-08
  -2.15402984E-08
  -1.27499016E-08
  -5.89172622E-09
  -1.54811156    
  -1.56631827    
  -1.58200037    
  -1.60277271    
  -1.61421180    
  -1.62077391    
  -1.59028518    
  -1.52579892    
  -1.46491170    
  -1.41929281    
  -1.30928862    
  -1.07458591    
 -0.905191958    
 -0.745361030    
 -0.475710988    
 -0.283327311    
 -0.168862537    
 -0.100793205    
  -6.02216087E-02
  -3.59995887E-02
  -2.15255227E-02
  -1.28725134E-02
  -7.69836968E-03
  -4.60412307E-03
  -2.75360513E-03
  -1.64687028E-03
  -9.84959654E-04
  -5.89087198E-04
  -3.52323055E-04
  -2.10717786E-04
  -1.26024956E-04
  -7.53661006E-05
  -4.50648586E-05
  -2.69480624E-05
  -1.61203443E-05
  -9.64665014E-06
  -5.77295305E-06
  -3.45393369E-06
  -2.06553932E-06
  -1.23404152E-06
  -7.36125173E-07
  -4.38241329E-07
  -2.59749413E-07
  -1.52713810E-07
  -8.96819969E-08
  -5.39950555E-08
  -3.39243940E-08
  -2.15391101E-08
  -1.27499504E-08
  -5.89224358E-09
  -1.60775280    
  -1.59962332    
  -1.59490347    
  -1.61126304    
  -1.62075794    
  -1.60407448    
  -1.56683075    
  -1.51435339    
  -1.45884264    
  -1.43723190    
  -1.31180918    
  -1.06341732    
 -0.899211645    
 -0.730815709    
 -0.484630466    
 -0.284110725    
 -0.168738127    
 -0.100688182    
  -6.01773560E-02
  -3.59839126E-02
  -2.15203688E-02
  -1.28708826E-02
  -7.69786490E-03
  -4.60396940E-03
  -2.75355810E-03
  -1.64685573E-03
  -9.84955230E-04
  -5.89086325E-04
  -3.52323259E-04
  -2.10717437E-04
  -1.26024548E-04
  -7.53660788E-05
  -4.50649750E-05
  -2.69480715E-05
  -1.61202843E-05
  -9.64660376E-06
  -5.77296805E-06
  -3.45401531E-06
  -2.06556115E-06
  -1.23401946E-06
  -7.36101242E-07
  -4.38225726E-07
  -2.59760441E-07
  -1.52719906E-07
  -8.96799932E-08
  -5.39988747E-08
  -3.39240458E-08
  -2.15359020E-08
  -1.27501023E-08
  -5.89315841E-09
  -1.56192815    
  -1.57930410    
  -1.58502626    
  -1.60644817    
  -1.60973084    
  -1.60699797    
  -1.58071184    
  -1.52504945    
  -1.46240830    
  -1.41930497    
  -1.30499101    
  -1.06056798    
 -0.908051014    
 -0.735641360    
 -0.494259447    
 -0.285924643    
 -0.169226587    
 -0.100844257    
  -6.02287650E-02
  -3.60005945E-02
  -2.15256643E-02
  -1.28725339E-02
  -7.69837294E-03
  -4.60412353E-03
  -2.75360467E-03
  -1.64686993E-03
  -9.84959654E-04
  -5.89087023E-04
  -3.52323463E-04
  -2.10718106E-04
  -1.26024504E-04
  -7.53660352E-05
  -4.50651351E-05
  -2.69479915E-05
  -1.61202315E-05
  -9.64670744E-06
  -5.77298169E-06
  -3.45391595E-06
  -2.06553614E-06
  -1.23404141E-06
  -7.36124605E-07
  -4.38244342E-07
  -2.59749669E-07
  -1.52712346E-07
  -8.96822030E-08
  -5.39955707E-08
  -3.39243442E-08
  -2.15390283E-08
  -1.27499584E-08
  -5.89225824E-09
  -1.47694778    
  -1.53362286    
  -1.56417024    
  -1.59150434    
  -1.59409475    
  -1.61476088    
  -1.59895921    
  -1.53963363    
  -1.47464252    
  -1.40130842    
  -1.28691661    
  -1.07462537    
 -0.903981686    
 -0.749461710    
 -0.480660290    
 -0.285354972    
 -0.169617474    
 -0.101055764    
  -6.03087060E-02
  -3.60275544E-02
  -2.15343032E-02
  -1.28752282E-02
  -7.69920088E-03
  -4.60437499E-03
  -2.75368034E-03
  -1.64689322E-03
  -9.84965474E-04
  -5.89088071E-04
  -3.52324219E-04
  -2.10718630E-04
  -1.26025087E-04
  -7.53661807E-05
  -4.50648949E-05
  -2.69479260E-05
  -1.61203170E-05
  -9.64675837E-06
  -5.77296123E-06
  -3.45384910E-06
  -2.06547929E-06
  -1.23406130E-06
  -7.36165873E-07
  -4.38257132E-07
  -2.59753676E-07
  -1.52702825E-07
  -8.96693564E-08
  -5.39964944E-08
  -3.39290018E-08
  -2.15402611E-08
  -1.27498048E-08
  -5.89165872E-09
  -1.47700977    
  -1.53370106    
  -1.56417668    
  -1.59147251    
  -1.59410572    
  -1.61481941    
  -1.59894419    
  -1.53963792    
  -1.47464073    
  -1.40131378    
  -1.28692341    
  -1.07462871    
 -0.903998315    
 -0.749472022    
 -0.480660588    
 -0.285355210    
 -0.169617534    
 -0.101055779    
  -6.03087060E-02
  -3.60275544E-02
  -2.15343032E-02
  -1.28752273E-02
  -7.69920088E-03
  -4.60437499E-03
  -2.75368034E-03
  -1.64689322E-03
  -9.84965474E-04
  -5.89088071E-04
  -3.52324219E-04
  -2.10718630E-04
  -1.26025101E-04
  -7.53661807E-05
  -4.50648913E-05
  -2.69479278E-05
  -1.61203170E-05
  -9.64675837E-06
  -5.77296123E-06
  -3.45384910E-06
  -2.06547952E-06
  -1.23406130E-06
  -7.36165703E-07
  -4.38257189E-07
  -2.59753733E-07
  -1.52702739E-07
  -8.96693351E-08
  -5.39964411E-08
  -3.39290231E-08
  -2.15402842E-08
  -1.27498589E-08
  -5.89174620E-09
  -1.54811156    
  -1.56631827    
  -1.58200037    
  -1.60277271    
  -1.61421180    
  -1.62077391    
  -1.59028518    
  -1.52579892    
  -1.46491170    
  -1.41929281    
  -1.30928862    
  -1.07458591    
 -0.905191958    
 -0.745361030    
 -0.475710988    
 -0.283327311    
 -0.168862537    
 -0.100793205    
  -6.02216087E-02
  -3.59995887E-02
  -2.15255227E-02
  -1.28725134E-02
  -7.69836968E-03
  -4.60412307E-03
  -2.75360513E-03
  -1.64687028E-03
  -9.84959654E-04
  -5.89087198E-04
  -3.52323055E-04
  -2.10717786E-04
  -1.26024956E-04
  -7.53661006E-05
  -4.50648586E-05
  -2.69480624E-05
  -1.61203443E-05
  -9.64665014E-06
  -5.77295305E-06
  -3.45393391E-06
  -2.06553932E-06
  -1.23404163E-06
  -7.36125287E-07
  -4.38241443E-07
  -2.59749584E-07
  -1.52713753E-07
  -8.96819969E-08
  -5.39950555E-08
  -3.39244224E-08
  -2.15391900E-08
  -1.27499833E-08
  -5.89226890E-09
  -1.60775280    
  -1.59962332    
  -1.59490347    
  -1.61126304    
  -1.62075794    
  -1.60407448    
  -1.56683075    
  -1.51435339    
  -1.45884264    
  -1.43723190    
  -1.31180918    
  -1.06341732    
 -0.899211645    
 -0.730815709    
 -0.484630466    
 -0.284110725    
 -0.168738127    
 -0.100688182    
  -6.01773560E-02
  -3.59839126E-02
  -2.15203688E-02
  -1.28708826E-02
  -7.69786490E-03
  -4.60396940E-03
  -2.75355810E-03
  -1.64685573E-03
  -9.84955230E-04
  -5.89086325E-04
  -3.52323259E-04
  -2.10717437E-04
  -1.26024548E-04
  -7.53660788E-05
  -4.50649750E-05
  -2.69480734E-05
  -1.61202843E-05
  -9.64660376E-06
  -5.77296805E-06
  -3.45401531E-06
  -2.06556138E-06
  -1.23401946E-06
  -7.36101185E-07
  -4.38225641E-07
  -2.59760498E-07
  -1.52719892E-07
  -8.96799506E-08
  -5.39987859E-08
  -3.39239961E-08
  -2.15358931E-08
  -1.27502577E-08
  -5.89326010E-09
  -1.56192815    
  -1.57930410    
  -1.58502626    
  -1.60644817    
  -1.60973084    
  -1.60699797    
  -1.58071184    
  -1.52504945    
  -1.46240830    
  -1.41930497    
  -1.30499101    
  -1.06056798    
 -0.908051014    
 -0.735641360    
 -0.494259447    
 -0.285924643    
 -0.169226587    
 -0.100844257    
  -6.02287650E-02
  -3.60005945E-02
  -2.15256643E-02
  -1.28725339E-02
  -7.69837294E-03
  -4.60412353E-03
  -2.75360467E-03
  -1.64686993E-03
  -9.84959654E-04
  -5.89087023E-04
  -3.52323463E-04
  -2.10718106E-04
  -1.26024504E-04
  -7.53660352E-05
  -4.50651351E-05
  -2.69479933E-05
  -1.61202333E-05
  -9.64670744E-06
  -5.77298169E-06
  -3.45391595E-06
  -2.06553614E-06
  -1.23404129E-06
  -7.36124434E-07
  -4.38244172E-07
  -2.59749470E-07
  -1.52711877E-07
  -8.96820609E-08
  -5.39955209E-08
  -3.39242803E-08
  -2.15390017E-08
  -1.27500401E-08
  -5.89236127E-09
  -1.47694778    
  -1.53362286    
  -1.56417024    
  -1.59150434    
  -1.59409475    
  -1.61476088    
  -1.59895921    
  -1.53963363    
  -1.47464252    
  -1.40130842    
  -1.28691661    
  -1.07462537    
 -0.903981686    
 -0.749461710    
 -0.480660290    
 -0.285354972    
 -0.169617474    
 -0.101055764    
  -6.03087060E-02
  -3.60275544E-02
  -2.15343032E-02
  -1.28752282E-02
  -7.69920088E-03
  -4.60437499E-03
  -2.75368034E-03
  -1.64689322E-03
  -9.84965474E-04
  -5.89088071E-04
  -3.52324219E-04
  -2.10718630E-04
  -1.26025087E-04
  -7.53661807E-05
  -4.50648949E-05
  -2.69479260E-05
  -1.61203170E-05
  -9.64675837E-06
  -5.77296123E-06
  -3.45384910E-06
  -2.06547929E-06
  -1.23406119E-06
  -7.36165759E-07
  -4.38256990E-07
  -2.59753449E-07
  -1.52702640E-07
  -8.96692143E-08
  -5.39964091E-08
  -3.39289521E-08
  -2.15403002E-08
  -1.27498110E-08
  -5.89174132E-09
  -1.47700977    
  -1.53370106    
  -1.56417668    
  -1.59147251    
  -1.59410572    
  -1.61481941    
  -1.59894419    
  -1.53963792    
  -1.47464073    
  -1.40131378    
  -1.28692341    
  -1.07462871    
 -0.903998315    
 -0.749472022    
 -0.480660588    
 -0.285355210    
 -0.169617534    
 -0.101055779    
  -6.03087060E-02
  -3.60275544E-02
  -2.15343032E-02
  -1.28752273E-02
  -7.69920088E-03
  -4.60437499E-03
  -2.75368034E-03
  -1.64689322E-03
  -9.84965474E-04
  -5.89088071E-04
  -3.52324219E-04
  -2.10718630E-04
  -1.26025101E-04
  -7.53661807E-05
  -4.50648913E-05
  -2.69479278E-05
  -1.61203170E-05
  -9.64675837E-06
  -5.77296123E-06
  -3.45384910E-06
  -2.06547952E-06
  -1.23406130E-06
  -7.36165532E-07
  -4.38257132E-07
  -2.59753648E-07
  -1.52702597E-07
  -8.96692853E-08
  -5.39964802E-08
  -3.39289805E-08
  -2.15402345E-08
  -1.27498829E-08
  -5.89168447E-09
  -1.54811156    
  -1.56631827    
  -1.58200037    
  -1.60277271    
  -1.61421180    
  -1.62077391    
  -1.59028518    
  -1.52579892    
  -1.46491170    
  -1.41929281    
  -1.30928862    
  -1.07458591    
 -0.905191958    
 -0.745361030    
 -0.475710988    
 -0.283327311    
 -0.168862537    
 -0.100793205    
  -6.02216087E-02
  -3.59995887E-02
  -2.15255227E-02
  -1.28725134E-02
  -7.69836968E-03
  -4.60412307E-03
  -2.75360513E-03
  -1.64687028E-03
  -9.84959654E-04
  -5.89087198E-04
  -3.52323055E-04
  -2.10717786E-04
  -1.26024956E-04
  -7.53661006E-05
  -4.50648586E-05
  -2.69480624E-05
  -1.61203443E-05
  -9.64665014E-06
  -5.77295305E-06
  -3.45393369E-06
  -2.06553932E-06
  -1.23404163E-06
  -7.36125173E-07
  -4.38241329E-07
  -2.59749527E-07
  -1.52713824E-07
  -8.96820609E-08
  -5.39950697E-08
  -3.39244579E-08
  -2.15392220E-08
  -1.27500748E-08
  -5.89229554E-09
  -1.60775280    
  -1.59962332    
  -1.59490347    
  -1.61126304    
  -1.62075794    
  -1.60407448    
  -1.56683075    
  -1.51435339    
  -1.45884264    
  -1.43723190    
  -1.31180918    
  -1.06341732    
 -0.899211645    
 -0.730815709    
 -0.484630466    
 -0.284110725    
 -0.168738127    
 -0.100688182    
  -6.01773560E-02
  -3.59839126E-02
  -2.15203688E-02
  -1.28708826E-02
  -7.69786490E-03
  -4.60396940E-03
  -2.75355810E-03
  -1.64685573E-03
  -9.84955230E-04
  -5.89086325E-04
  -3.52323259E-04
  -2.10717437E-04
  -1.26024548E-04
  -7.53660788E-05
  -4.50649750E-05
  -2.69480734E-05
  -1.61202843E-05
  -9.64660376E-06
  -5.77296805E-06
  -3.45401531E-06
  -2.06556115E-06
  -1.23401946E-06
  -7.36101128E-07
  -4.38225698E-07
  -2.59760526E-07
  -1.52719963E-07
  -8.96800856E-08
  -5.39988427E-08
  -3.39239676E-08
  -2.15359961E-08
  -1.27502879E-08
  -5.89331428E-09
  -1.56192815    
  -1.57930410    
  -1.58502626    
  -1.60644817    
  -1.60973084    
  -1.60699797    
  -1.58071184    
  -1.52504945    
  -1.46240830    
  -1.41930497    
  -1.30499101    
  -1.06056798    
 -0.908051014    
 -0.735641360    
 -0.494259447    
 -0.285924643    
 -0.169226587    
 -0.100844257    
  -6.02287650E-02
  -3.60005945E-02
  -2.15256643E-02
  -1.28725339E-02
  -7.69837294E-03
  -4.60412353E-03
  -2.75360467E-03
  -1.64686993E-03
  -9.84959654E-04
  -5.89087023E-04
  -3.52323463E-04
  -2.10718106E-04
  -1.26024504E-04
  -7.53660352E-05
  -4.50651351E-05
  -2.69479915E-05
  -1.61202333E-05
  -9.64670744E-06
  -5.77298169E-06
  -3.45391595E-06
  -2.06553614E-06
  -1.23404129E-06
  -7.36124377E-07
  -4.38244314E-07
  -2.59749612E-07
  -1.52712090E-07
  -8.96821106E-08
  -5.39955529E-08
  -3.39242519E-08
  -2.15389893E-08
  -1.27500019E-08
  -5.89236171E-09
  -1.47694778    
  -1.53362286    
  -1.56417024    
  -1.59150434    
  -1.59409475    
  -1.61476088    
  -1.59895921    
  -1.53963363    
  -1.47464252    
  -1.40130842    
  -1.28691661    
  -1.07462537    
 -0.903981686    
 -0.749461710    
 -0.480660290    
 -0.285354972    
 -0.169617474    
 -0.101055764    
  -6.03087060E-02
  -3.60275544E-02
  -2.15343032E-02
  -1.28752282E-02
  -7.69920088E-03
  -4.60437499E-03
  -2.75368034E-03
  -1.64689322E-03
  -9.84965474E-04
  -5.89088071E-04
  -3.52324219E-04
  -2.10718630E-04
  -1.26025087E-04
  -7.53661807E-05
  -4.50648949E-05
  -2.69479260E-05
  -1.61203170E-05
  -9.64675837E-06
  -5.77296123E-06
  -3.45384910E-06
  -2.06547929E-06
  -1.23406107E-06
  -7.36165646E-07
  -4.38256933E-07
  -2.59753477E-07
  -1.52702768E-07
  -8.96692711E-08
  -5.39963771E-08
  -3.39289308E-08
  -2.15402203E-08
  -1.27497666E-08
  -5.89166538E-09
  -1.47700977    
  -1.53370106    
  -1.56417668    
  -1.59147251    
  -1.59410572    
  -1.61481941    
  -1.59894419    
  -1.53963792    
  -1.47464073    
  -1.40131378    
  -1.28692341    
  -1.07462871    
 -0.903998315    
 -0.749472022    
 -0.480660588    
 -0.285355210    
 -0.169617534    
 -0.101055779    
  -6.03087060E-02
  -3.60275544E-02
  -2.15343032E-02
  -1.28752273E-02
  -7.69920088E-03
  -4.60437499E-03
  -2.75368034E-03
  -1.64689322E-03
  -9.84965474E-04
  -5.89088071E-04
  -3.52324219E-04
  -2.10718630E-04
  -1.26025101E-04
  -7.53661807E-05
  -4.50648913E-05
  -2.69479278E-05
  -1.61203170E-05
  -9.64675837E-06
  -5.77296123E-06
  -3.45384910E-06
  -2.06547929E-06
  -1.23406119E-06
  -7.36165418E-07
  -4.38256961E-07
  -2.59753449E-07
  -1.52702583E-07
  -8.96692853E-08
  -5.39964304E-08
  -3.39289379E-08
  -2.15402309E-08
  -1.27498376E-08
  -5.89171156E-09
  -1.54811156    
  -1.56631827    
  -1.58200037    
  -1.60277271    
  -1.61421180    
  -1.62077391    
  -1.59028518    
  -1.52579892    
  -1.46491170    
  -1.41929281    
  -1.30928862    
  -1.07458591    
 -0.905191958    
 -0.745361030    
 -0.475710988    
 -0.283327311    
 -0.168862537    
 -0.100793205    
  -6.02216087E-02
  -3.59995887E-02
  -2.15255227E-02
  -1.28725134E-02
  -7.69836968E-03
  -4.60412307E-03
  -2.75360513E-03
  -1.64687028E-03
  -9.84959654E-04
  -5.89087198E-04
  -3.52323055E-04
  -2.10717786E-04
  -1.26024956E-04
  -7.53661006E-05
  -4.50648586E-05
  -2.69480624E-05
  -1.61203443E-05
  -9.64665014E-06
  -5.77295305E-06
  -3.45393369E-06
  -2.06553909E-06
  -1.23404163E-06
  -7.36125116E-07
  -4.38241273E-07
  -2.59749498E-07
  -1.52713753E-07
  -8.96819543E-08
  -5.39950022E-08
  -3.39244828E-08
  -2.15390958E-08
  -1.27499087E-08
  -5.89219296E-09
  -1.60775280    
  -1.59962332    
  -1.59490347    
  -1.61126304    
  -1.62075794    
  -1.60407448    
  -1.56683075    
  -1.51435339    
  -1.45884264    
  -1.43723190    
  -1.31180918    
  -1.06341732    
 -0.899211645    
 -0.730815709    
 -0.484630466    
 -0.284110725    
 -0.168738127    
 -0.100688182    
  -6.01773560E-02
  -3.59839126E-02
  -2.15203688E-02
  -1.28708826E-02
  -7.69786490E-03
  -4.60396940E-03
  -2.75355810E-03
  -1.64685573E-03
  -9.84955230E-04
  -5.89086325E-04
  -3.52323259E-04
  -2.10717437E-04
  -1.26024548E-04
  -7.53660788E-05
  -4.50649750E-05
  -2.69480715E-05
  -1.61202843E-05
  -9.64660376E-06
  -5.77296805E-06
  -3.45401531E-06
  -2.06556115E-06
  -1.23401935E-06
  -7.36101185E-07
  -4.38225612E-07
  -2.59760498E-07
  -1.52719991E-07
  -8.96800216E-08
  -5.39988072E-08
  -3.39239961E-08
  -2.15358700E-08
  -1.27502151E-08
  -5.89313176E-09
  -1.56192815    
  -1.57930410    
  -1.58502626    
  -1.60644817    
  -1.60973084    
  -1.60699797    
  -1.58071184    
  -1.52504945    
  -1.46240830    
  -1.41930497    
  -1.30499101    
  -1.06056798    
 -0.908051014    
 -0.735641360    
 -0.494259447    
 -0.285924643    
 -0.169226587    
 -0.100844257    
  -6.02287650E-02
  -3.60005945E-02
  -2.15256643E-02
  -1.28725339E-02
  -7.69837294E-03
  -4.60412353E-03
  -2.75360467E-03
  -1.64686993E-03
  -9.84959654E-04
  -5.89087023E-04
  -3.52323463E-04
  -2.10718106E-04
  -1.26024504E-04
  -7.53660352E-05
  -4.50651351E-05
  -2.69479915E-05
  -1.61202333E-05
  -9.64670744E-06
  -5.77298169E-06
  -3.45391595E-06
  -2.06553614E-06
  -1.23404129E-06
  -7.36124434E-07
  -4.38244257E-07
  -2.59749640E-07
  -1.52712218E-07
  -8.96819969E-08
  -5.39955387E-08
  -3.39242838E-08
  -2.15390319E-08
  -1.27499495E-08
  -5.89226667E-09
  -1.47694778    
  -1.53362286    
  -1.56417024    
  -1.59150434    
  -1.59409475    
  -1.61476088    
  -1.59895921    
  -1.53963363    
  -1.47464252    
  -1.40130842    
  -1.28691661    
  -1.07462537    
 -0.903981686    
 -0.749461710    
 -0.480660290    
 -0.285354972    
 -0.169617474    
 -0.101055764    
  -6.03087060E-02
  -3.60275544E-02
  -2.15343032E-02
  -1.28752282E-02
  -7.69920088E-03
  -4.60437499E-03
  -2.75368034E-03
  -1.64689322E-03
  -9.84965474E-04
  -5.89088071E-04
  -3.52324219E-04
  -2.10718630E-04
  -1.26025087E-04
  -7.53661807E-05
  -4.50648949E-05
  -2.69479260E-05
  -1.61203170E-05
  -9.64675837E-06
  -5.77296123E-06
  -3.45384888E-06
  -2.06547929E-06
  -1.23406107E-06
  -7.36165532E-07
  -4.38256933E-07
  -2.59753534E-07
  -1.52702711E-07
  -8.96692498E-08
  -5.39963665E-08
  -3.39289663E-08
  -2.15402025E-08
  -1.27498483E-08
  -5.89173821E-09
  -1.47700977    
  -1.53370106    
  -1.56417668    
  -1.59147251    
  -1.59410572    
  -1.61481941    
  -1.59894419    
  -1.53963792    
  -1.47464073    
  -1.40131378    
  -1.28692341    
  -1.07462871    
 -0.903998315    
 -0.749472022    
 -0.480660588    
 -0.285355210    
 -0.169617534    
 -0.101055779    
  -6.03087060E-02
  -3.60275544E-02
  -2.15343032E-02
  -1.28752273E-02
  -7.69920088E-03
  -4.60437499E-03
  -2.75368034E-03
  -1.64689322E-03
  -9.84965474E-04
  -5.89088071E-04
  -3.52324219E-04
  -2.10718630E-04
  -1.26025101E-04
  -7.53661807E-05
  -4.50648913E-05
  -2.69479278E-05
  -1.61203170E-05
  -9.64675837E-06
  -5.77296123E-06
  -3.45384910E-06
  -2.06547952E-06
  -1.23406096E-06
  -7.36165418E-07
  -4.38257246E-07
  -2.59753563E-07
  -1.52702711E-07
  -8.96693209E-08
  -5.39964908E-08
  -3.39290871E-08
  -2.15402931E-08
  -1.27498971E-08
  -5.89176041E-09
  -1.54811156    
  -1.56631827    
  -1.58200037    
  -1.60277271    
  -1.61421180    
  -1.62077391    
  -1.59028518    
  -1.52579892    
  -1.46491170    
  -1.41929281    
  -1.30928862    
  -1.07458591    
 -0.905191958    
 -0.745361030    
 -0.475710988    
 -0.283327311    
 -0.168862537    
 -0.100793205    
  -6.02216087E-02
  -3.59995887E-02
  -2.15255227E-02
  -1.28725134E-02
  -7.69836968E-03
  -4.60412307E-03
  -2.75360513E-03
  -1.64687028E-03
  -9.84959654E-04
  -5.89087198E-04
  -3.52323055E-04
  -2.10717786E-04
  -1.26024956E-04
  -7.53661006E-05
  -4.50648586E-05
  -2.69480624E-05
  -1.61203443E-05
  -9.64665014E-06
  -5.77295305E-06
  -3.45393369E-06
  -2.06553909E-06
  -1.23404152E-06
  -7.36125060E-07
  -4.38241500E-07
  -2.59749527E-07
  -1.52713781E-07
  -8.96821106E-08
  -5.39951834E-08
  -3.39245432E-08
  -2.15392006E-08
  -1.27498998E-08
  -5.89221250E-09
  -1.60775280    
  -1.59962332    
  -1.59490347    
  -1.61126304    
  -1.62075794    
  -1.60407448    
  -1.56683075    